<?xml version="1.0"?>
<VTKFile type="UnstructuredGrid" version="0.1" byte_order="LittleEndian">
  <UnstructuredGrid>
    <Piece NumberOfCells="8192" NumberOfPoints="4225">
      <CellData Scalars="function">
        <DataArray type="Float32" Name="function" NumberOfComponents="1" format="ascii">
          0.990876 0.993603 0.925462 0.95511 0.989061 0.996512 0.981381 0.998341 0.94197 0.905274 0.796241 0.916684
          0.99751 0.951303 0.981381 0.995014 0.427892 0.499166 0.695098 0.499166 0.0282183 -0.218367 0.268745 0.192586
          0.846536 0.686517 0.943254 0.920669 0.852981 0.805465 0.633303 0.805465 0.701079 0.669167 0.406223 0.624295
          0.927354 0.992014 0.837154 0.85952 0.290207 0.526937 0.135819 0.151648 0.214151 0.260083 0.552196 0.319905
          0.588948 0.769538 0.377934 0.447692 0.600888 0.679972 0.821332 0.658195 0.911072 0.937283 0.997305 0.946472
          0.669167 0.461249 0.821332 0.778617 0.925462 0.968868 0.990876 0.939016 0.703593 0.528939 0.889112 0.819603
          0.958871 0.998187 0.829334 0.893124 0.981381 0.998893 0.99751 0.9883 0.819603 0.686517 0.965652 0.910677
          0.720318 0.586871 0.558188 0.712 0.624161 0.499166 0.407119 0.596299 0.877561 0.958772 0.669101 0.775906
          0.448493 0.225318 0.677851 0.596299 0.396672 0.279554 0.115901 0.343892 0.0172865 -0.0804719 -0.300333 -0.0588685
          0.417526 0.624161 0.159758 0.257916 0.994021 0.974846 0.91574 0.984952 0.954922 0.85952 0.999971 0.992014
          0.728544 0.865514 0.489133 0.596299 0.768258 0.833298 0.920669 0.805465 -0.673655 -0.650887 -0.359968 -0.58693
          -0.91101 -0.986311 -0.824425 -0.840831 -0.280088 -0.518508 -0.13408 -0.144724 -0.187002 -0.218367 -0.536013 -0.300333
          -0.49177 -0.695735 -0.300333 -0.350149 -0.464474 -0.527293 -0.737779 -0.544668 -0.880741 -0.902809 -0.991852 -0.926333
          -0.619487 -0.398735 -0.764199 -0.730971 -0.960831 -0.856587 -0.991038 -0.989763 -0.983831 -0.978521 -0.847263 -0.955623
          -0.606477 -0.599596 -0.258146 -0.499384 -0.865653 -0.965729 -0.786139 -0.791559 -0.795366 -0.801348 -0.966132 -0.866434
          -0.500746 -0.259673 -0.619487 -0.611455 -0.975291 -0.885333 -0.998631 -0.996758 -0.993012 -0.991852 -0.87606 -0.970893
          0.958772 0.852981 0.990876 0.989061 0.98021 0.971933 0.839975 0.951303 0.605658 0.596299 0.257916 0.499166
          0.865514 0.965652 0.783453 0.790896 0.796241 0.804785 0.966217 0.866609 0.50109 0.260083 0.624295 0.612671
          0.978712 0.893124 0.999785 0.998187 0.993603 0.992014 0.880235 0.97283 0.448493 0.396672 0.104931 0.354516
          0.768258 0.905481 0.614946 0.66027 -0.0696805 0.181652 -0.300333 -0.22875 -0.101989 -0.0480374 0.247067 -0.00454402
          0.21442 0.458726 0.0391595 0.0720263 0.115901 0.12687 0.479047 0.236201 0.728544 0.752663 0.925462 0.798234
          0.396672 0.1488 0.558188 0.528939 -0.766806 -0.714767 -0.525975 -0.714767 -0.960215 -0.999399 -0.867046 -0.901058
          -0.318513 -0.549343 -0.140885 -0.171668 -0.290136 -0.373695 -0.594304 -0.373695 -0.798461 -0.911224 -0.572121 -0.677034
          -0.867046 -0.938266 -0.960215 -0.878972 -0.966422 -0.989378 -0.998626 -0.981789 -0.782937 -0.61589 -0.929824 -0.878972
          -0.953945 -0.844938 -0.990497 -0.987367 -0.970665 -0.953945 -0.823541 -0.940909 -0.603923 -0.589304 -0.257445 -0.498711
          -0.865206 -0.965479 -0.777586 -0.789452 -0.798461 -0.81338 -0.966422 -0.867046 -0.502022 -0.261249 -0.636875 -0.61589
          -0.985845 -0.911224 -0.998626 -0.999919 -0.994896 -0.992393 -0.890308 -0.977204 0.930446 0.81185 0.988633 0.978108
          0.910088 0.838584 0.754917 0.887867 0.597803 0.564626 0.255946 0.497165 0.863975 0.964707 0.754917 0.783918
          0.815136 0.870071 0.967595 0.870071 0.51389 0.288539 0.743418 0.64797 0.999635 0.983966 0.930446 0.978108
          0.999253 0.99425 0.944117 0.99425 0.0522252 -0.109667 -0.202001 0.0191467 0.428676 0.597803 0.0856036 0.255946
          -0.61589 -0.452384 -0.854526 -0.750068 -0.502022 -0.373695 -0.290136 -0.47749 0.119254 0.359636 -0.140885 -0.046007
          0.0856036 0.119254 0.428676 0.187249 0.531057 0.63051 0.724969 0.564626 0.153147 -0.0780347 0.428676 0.325043
          -0.0259579 0.183069 -0.355718 -0.207857 0.119916 0.290207 0.334587 0.135819 0.290207 0.420177 0.539641 0.334587
          -0.108445 -0.323142 0.214151 0.0717948 -0.834378 -0.727785 -0.688175 -0.823541 -0.979838 -0.999959 -0.844938 -0.926429
          -0.257445 -0.436016 0.103942 -0.075376 -0.40412 -0.544589 -0.589304 -0.420109 0.94197 0.986174 0.992014 0.946472
          0.750849 0.612671 0.937283 0.85952 0.925462 0.98021 0.728544 0.839975 0.974846 0.998341 0.999828 0.977605
          0.829334 0.69061 0.966217 0.916684 0.769538 0.679972 0.576851 0.741242 0.635758 0.50109 0.461249 0.624295
          0.880235 0.958871 0.669167 0.778617 -0.355718 -0.273924 -0.0259579 -0.273924 -0.70158 -0.855217 -0.498711 -0.574538
          0.229557 -0.00955188 0.48795 0.392141 0.214151 0.135819 -0.108445 0.135819 -0.191294 -0.436016 0.00681394 -0.0424001
          -0.108445 -0.125004 -0.467562 -0.224406 -0.688175 -0.727785 -0.893367 -0.753138 -0.339457 -0.0919012 -0.529417 -0.483189
          -0.926429 -0.987367 -0.765479 -0.844938 -0.947611 -0.975453 -0.999526 -0.965479 -0.998626 -0.994896 -0.985845 -0.999526
          -0.902127 -0.789452 -0.993195 -0.965479 -0.191294 -0.306778 -0.451836 -0.240937 0.214151 0.434001 -0.075376 0.0394088
          -0.740572 -0.559631 -0.893367 -0.844938 -0.70158 -0.603923 -0.467562 -0.660792 0.0523631 -0.103188 -0.176901 0.0279179
          0.430891 0.610816 0.109072 0.259464 -0.606477 -0.423969 -0.832803 -0.740775 -0.499384 -0.353933 -0.282302 -0.477059
          0.320653 0.500567 -0.0293461 0.141217 0.473096 0.623046 0.641082 0.480015 0.547282 0.676012 0.725445 0.566749
          0.188995 -0.0129599 0.514094 0.365505 0.610816 0.771163 0.335708 0.459158 0.687309 0.785549 0.850843 0.714775
          0.854794 0.914043 0.966085 0.881013 0.579536 0.380239 0.799499 0.714775 -0.322268 -0.185065 -0.0621548 -0.282302
          -0.666523 -0.812659 -0.393067 -0.521428 0.35066 0.141217 0.635111 0.514094 0.251714 0.117128 -0.00477327 0.212657
          -0.949669 -0.993012 -0.78315 -0.87606 -0.987831 -0.999745 -0.998724 -0.989261 -0.998631 -0.994363 -0.982143 -0.999708
          -0.902809 -0.795366 -0.995064 -0.966132 -0.300333 -0.464474 -0.49177 -0.310389 0.0720263 0.257916 -0.290232 -0.112711
          -0.861489 -0.751152 -0.986311 -0.940211 -0.764199 -0.643148 -0.619487 -0.757717 -0.578719 -0.423969 -0.400828 -0.571684
          -0.837685 -0.925027 -0.585717 -0.722882 0.117128 -0.0703614 0.466143 0.297883 -0.0539495 -0.225766 -0.250069 -0.0621548
          -0.791559 -0.899259 -0.535961 -0.666523 -0.865653 -0.931742 -0.958266 -0.87876 -0.918021 -0.972484 -0.978521 -0.92156
          -0.704531 -0.550357 -0.906975 -0.822852 0.562737 0.39094 0.816739 0.705074 0.415546 0.245407 0.226032 0.409418
          0.347316 0.187096 0.128345 0.328421 0.675215 0.808621 0.378546 0.528578 0.999485 0.977543 0.972791 0.999226
          0.941776 0.862543 0.999692 0.987569 0.719586 0.836367 0.421658 0.579503 0.828631 0.913651 0.922064 0.832519
          -0.630116 -0.759546 -0.771514 -0.634974 -0.302519 -0.119789 -0.625232 -0.472766 -0.988334 -0.94275 -0.976904 -0.999482
          -0.946727 -0.875324 -0.866281 -0.944756 -0.356954 -0.164726 -0.658856 -0.522211 -0.215506 -0.054963 0.00381836 -0.196543
          -0.132671 0.0431337 0.0628071 -0.126234 -0.489446 -0.649385 -0.151931 -0.320807 0.961971 0.910758 0.862203 0.951634
          0.992674 0.944255 0.977543 0.998135 0.562737 0.72436 0.258283 0.403274 0.654714 0.756857 0.820741 0.680267
          0.992941 0.994339 0.90782 0.955911 0.999226 0.996433 0.971582 0.999934 0.973306 0.931323 0.884552 0.964145
          0.985707 0.92478 0.988698 0.999934 0.962151 0.888038 0.997147 0.995789 0.914043 0.838684 0.799499 0.904686
          0.870086 0.771163 0.756347 0.86634 0.990794 0.998135 0.881013 0.949052 0.774681 0.865733 0.895636 0.78768
          0.475891 0.28393 0.743129 0.628452 0.99966 0.983185 0.934017 0.978153 0.993771 0.961971 0.942515 0.991129
          -0.633592 -0.423969 -0.802226 -0.752442 -0.626875 -0.550357 -0.346045 -0.564611 -0.176901 -0.103188 0.165177 -0.0867758
          -0.557502 -0.746635 -0.346045 -0.41628 -0.994083 -0.999708 -0.974576 -0.999708 -0.866434 -0.717114 -0.963615 -0.936878
          -0.887164 -0.972484 -0.734862 -0.796922 -0.891264 -0.925027 -0.989763 -0.925027 0.335708 0.430891 0.610816 0.402126
          -0.0703614 -0.306329 0.204788 0.101004 0.821767 0.66454 0.949052 0.907858 0.799499 0.735932 0.579536 0.756347
          0.380239 0.141217 0.598423 0.527479 0.387563 0.320653 0.0604947 0.305497 -0.0949826 -0.185065 -0.400828 -0.16873
          0.313087 0.534117 0.0604947 0.149219 -0.491973 -0.45447 -0.144182 -0.393067 -0.796922 -0.925027 -0.666523 -0.698316
          -0.0129599 -0.266212 0.1969 0.141217 0.0442227 0.00340838 -0.314307 -0.0621548 -0.225766 -0.469558 -0.0621548 -0.0867758
          -0.119594 -0.127794 -0.484531 -0.241979 -0.746635 -0.763895 -0.938163 -0.817786 -0.423969 -0.176901 -0.571684 -0.550357
          -0.999745 -0.973138 -0.970311 -0.983831 -0.997612 -0.999745 -0.958309 -0.999437 -0.871291 -0.835449 -0.658552 -0.824425
          -0.995064 -0.988404 -0.946607 -0.966132 -0.535961 -0.585717 -0.791559 -0.613317 -0.15237 0.101004 -0.361801 -0.306329
          -0.887164 -0.740775 -0.960831 -0.947234 -0.906975 -0.87876 -0.704531 -0.861153 -0.611455 -0.710067 -0.807245 -0.650887
          -0.249405 -0.0263219 -0.536013 -0.417799 -0.970893 -0.894249 -0.996927 -0.998095 -0.946607 -0.898574 -0.824425 -0.929938
          -0.561777 -0.350149 -0.770599 -0.695735 -0.536013 -0.455255 -0.249405 -0.473633 -0.176479 -0.0588685 0.104931 -0.123409
          -0.553256 -0.730971 -0.290232 -0.398735 -0.0263219 0.181652 -0.359968 -0.207946 0.0939606 0.236201 0.333238 0.12687
          0.236201 0.396672 0.427892 0.247067 -0.144724 -0.34028 0.203509 0.0391595 -0.840831 -0.751152 -0.688452 -0.824425
          -0.984701 -0.999151 -0.87606 -0.936878 -0.300333 -0.500746 0.0172865 -0.123409 -0.408294 -0.544668 -0.619487 -0.436641
          -0.431634 -0.626875 -0.144182 -0.266212 -0.484531 -0.578719 -0.716815 -0.535961 -0.734862 -0.817786 -0.887164 -0.763895
          -0.408566 -0.193222 -0.666523 -0.564611 0.520804 0.416569 0.259464 0.473096 0.817412 0.928576 0.616951 0.703923
          -0.0949826 0.141217 -0.36965 -0.266212 -0.0375446 0.084832 0.251714 0.0197545 -0.999745 -0.996758 -0.961008 -0.999078
          -0.906975 -0.780662 -0.986962 -0.965729 -0.82998 -0.940211 -0.658552 -0.724082 -0.846126 -0.898574 -0.968558 -0.880741
          -0.996927 -0.952903 -0.975291 -0.995064 -0.986962 -0.955623 -0.906975 -0.978521 -0.887164 -0.827858 -0.710698 -0.856587
          -0.997612 -0.986311 -0.934989 -0.970311 -0.970311 -0.934989 -0.986311 -0.997612 -0.856587 -0.710698 -0.827858 -0.887164
          -0.978521 -0.906975 -0.955623 -0.986962 -0.995064 -0.975291 -0.952903 -0.996927 -0.880741 -0.968558 -0.898574 -0.846126
          -0.724082 -0.658552 -0.940211 -0.82998 -0.965729 -0.986962 -0.780662 -0.906975 -0.999078 -0.961008 -0.996758 -0.999745
          0.0197545 0.251714 0.084832 -0.0375446 -0.266212 -0.36965 0.141217 -0.0949826 0.703923 0.616951 0.928576 0.817412
          0.473096 0.259464 0.416569 0.520804 -0.564611 -0.666523 -0.193222 -0.408566 -0.763895 -0.887164 -0.817786 -0.734862
          -0.535961 -0.716815 -0.578719 -0.484531 -0.266212 -0.144182 -0.626875 -0.431634 -0.436641 -0.619487 -0.544668 -0.408294
          -0.123409 0.0172865 -0.500746 -0.300333 -0.936878 -0.87606 -0.999151 -0.984701 -0.824425 -0.688452 -0.751152 -0.840831
          0.0391595 0.203509 -0.34028 -0.144724 0.247067 0.427892 0.396672 0.236201 0.12687 0.333238 0.236201 0.0939606
          -0.207946 -0.359968 0.181652 -0.0263219 -0.398735 -0.290232 -0.730971 -0.553256 -0.123409 0.104931 -0.0588685 -0.176479
          -0.473633 -0.249405 -0.455255 -0.536013 -0.695735 -0.770599 -0.350149 -0.561777 -0.929938 -0.824425 -0.898574 -0.946607
          -0.998095 -0.996927 -0.894249 -0.970893 -0.417799 -0.536013 -0.0263219 -0.249405 -0.650887 -0.807245 -0.710067 -0.611455
          -0.861153 -0.704531 -0.87876 -0.906975 -0.947234 -0.960831 -0.740775 -0.887164 -0.306329 -0.361801 0.101004 -0.15237
          -0.613317 -0.791559 -0.585717 -0.535961 -0.966132 -0.946607 -0.988404 -0.995064 -0.824425 -0.658552 -0.835449 -0.871291
          -0.999437 -0.958309 -0.999745 -0.997612 -0.983831 -0.970311 -0.973138 -0.999745 -0.550357 -0.571684 -0.176901 -0.423969
          -0.817786 -0.938163 -0.763895 -0.746635 -0.241979 -0.484531 -0.127794 -0.119594 -0.0867758 -0.0621548 -0.469558 -0.225766
          -0.0621548 -0.314307 0.00340838 0.0442227 0.141217 0.1969 -0.266212 -0.0129599 -0.698316 -0.666523 -0.925027 -0.796922
          -0.393067 -0.144182 -0.45447 -0.491973 0.149219 0.0604947 0.534117 0.313087 -0.16873 -0.400828 -0.185065 -0.0949826
          0.305497 0.0604947 0.320653 0.387563 0.527479 0.598423 0.141217 0.380239 0.756347 0.579536 0.735932 0.799499
          0.907858 0.949052 0.66454 0.821767 0.101004 0.204788 -0.306329 -0.0703614 0.402126 0.610816 0.430891 0.335708
          -0.925027 -0.989763 -0.925027 -0.891264 -0.796922 -0.734862 -0.972484 -0.887164 -0.936878 -0.963615 -0.717114 -0.866434
          -0.999708 -0.974576 -0.999708 -0.994083 -0.41628 -0.346045 -0.746635 -0.557502 -0.0867758 0.165177 -0.103188 -0.176901
          -0.564611 -0.346045 -0.550357 -0.626875 -0.752442 -0.802226 -0.423969 -0.633592 0.991129 0.942515 0.961971 0.993771
          0.978153 0.934017 0.983185 0.99966 0.628452 0.743129 0.28393 0.475891 0.78768 0.895636 0.865733 0.774681
          0.949052 0.881013 0.998135 0.990794 0.86634 0.756347 0.771163 0.870086 0.904686 0.799499 0.838684 0.914043
          0.995789 0.997147 0.888038 0.962151 0.999934 0.988698 0.92478 0.985707 0.964145 0.884552 0.931323 0.973306
          0.999934 0.971582 0.996433 0.999226 0.955911 0.90782 0.994339 0.992941 0.680267 0.820741 0.756857 0.654714
          0.403274 0.258283 0.72436 0.562737 0.998135 0.977543 0.944255 0.992674 0.951634 0.862203 0.910758 0.961971
          -0.320807 -0.151931 -0.649385 -0.489446 -0.126234 0.0628071 0.0431337 -0.132671 -0.196543 0.00381836 -0.054963 -0.215506
          -0.522211 -0.658856 -0.164726 -0.356954 -0.944756 -0.866281 -0.875324 -0.946727 -0.999482 -0.976904 -0.94275 -0.988334
          -0.472766 -0.625232 -0.119789 -0.302519 -0.634974 -0.771514 -0.759546 -0.630116 0.832519 0.922064 0.913651 0.828631
          0.579503 0.421658 0.836367 0.719586 0.987569 0.999692 0.862543 0.941776 0.999226 0.972791 0.977543 0.999485
          0.528578 0.378546 0.808621 0.675215 0.328421 0.128345 0.187096 0.347316 0.409418 0.226032 0.245407 0.415546
          0.705074 0.816739 0.39094 0.562737 -0.822852 -0.906975 -0.550357 -0.704531 -0.92156 -0.978521 -0.972484 -0.918021
          -0.87876 -0.958266 -0.931742 -0.865653 -0.666523 -0.535961 -0.899259 -0.791559 -0.0621548 -0.250069 -0.225766 -0.0539495
          0.297883 0.466143 -0.0703614 0.117128 -0.722882 -0.585717 -0.925027 -0.837685 -0.571684 -0.400828 -0.423969 -0.578719
          -0.757717 -0.619487 -0.643148 -0.764199 -0.940211 -0.986311 -0.751152 -0.861489 -0.112711 -0.290232 0.257916 0.0720263
          -0.310389 -0.49177 -0.464474 -0.300333 -0.966132 -0.995064 -0.795366 -0.902809 -0.999708 -0.982143 -0.994363 -0.998631
          -0.989261 -0.998724 -0.999745 -0.987831 -0.87606 -0.78315 -0.993012 -0.949669 0.212657 -0.00477327 0.117128 0.251714
          0.514094 0.635111 0.141217 0.35066 -0.521428 -0.393067 -0.812659 -0.666523 -0.282302 -0.0621548 -0.185065 -0.322268
          0.714775 0.799499 0.380239 0.579536 0.881013 0.966085 0.914043 0.854794 0.714775 0.850843 0.785549 0.687309
          0.459158 0.335708 0.771163 0.610816 0.365505 0.514094 -0.0129599 0.188995 0.566749 0.725445 0.676012 0.547282
          0.480015 0.641082 0.623046 0.473096 0.141217 -0.0293461 0.500567 0.320653 -0.477059 -0.282302 -0.353933 -0.499384
          -0.740775 -0.832803 -0.423969 -0.606477 0.259464 0.109072 0.610816 0.430891 0.0279179 -0.176901 -0.103188 0.0523631
          -0.660792 -0.467562 -0.603923 -0.70158 -0.844938 -0.893367 -0.559631 -0.740572 0.0394088 -0.075376 0.434001 0.214151
          -0.240937 -0.451836 -0.306778 -0.191294 -0.965479 -0.993195 -0.789452 -0.902127 -0.999526 -0.985845 -0.994896 -0.998626
          -0.965479 -0.999526 -0.975453 -0.947611 -0.844938 -0.765479 -0.987367 -0.926429 -0.483189 -0.529417 -0.0919012 -0.339457
          -0.753138 -0.893367 -0.727785 -0.688175 -0.224406 -0.467562 -0.125004 -0.108445 -0.0424001 0.00681394 -0.436016 -0.191294
          0.135819 -0.108445 0.135819 0.214151 0.392141 0.48795 -0.00955188 0.229557 -0.574538 -0.498711 -0.855217 -0.70158
          -0.273924 -0.0259579 -0.273924 -0.355718 0.778617 0.669167 0.958871 0.880235 0.624295 0.461249 0.50109 0.635758
          0.741242 0.576851 0.679972 0.769538 0.916684 0.966217 0.69061 0.829334 0.977605 0.999828 0.998341 0.974846
          0.839975 0.728544 0.98021 0.925462 0.85952 0.937283 0.612671 0.750849 0.946472 0.992014 0.986174 0.94197
          -0.420109 -0.589304 -0.544589 -0.40412 -0.075376 0.103942 -0.436016 -0.257445 -0.926429 -0.844938 -0.999959 -0.979838
          -0.823541 -0.688175 -0.727785 -0.834378 0.0717948 0.214151 -0.323142 -0.108445 0.334587 0.539641 0.420177 0.290207
          0.135819 0.334587 0.290207 0.119916 -0.207857 -0.355718 0.183069 -0.0259579 0.325043 0.428676 -0.0780347 0.153147
          0.564626 0.724969 0.63051 0.531057 0.187249 0.428676 0.119254 0.0856036 -0.046007 -0.140885 0.359636 0.119254
          -0.47749 -0.290136 -0.373695 -0.502022 -0.750068 -0.854526 -0.452384 -0.61589 0.255946 0.0856036 0.597803 0.428676
          0.0191467 -0.202001 -0.109667 0.0522252 0.99425 0.944117 0.99425 0.999253 0.978108 0.930446 0.983966 0.999635
          0.64797 0.743418 0.288539 0.51389 0.870071 0.967595 0.870071 0.815136 0.783918 0.754917 0.964707 0.863975
          0.497165 0.255946 0.564626 0.597803 0.887867 0.754917 0.838584 0.910088 0.978108 0.988633 0.81185 0.930446
          -0.977204 -0.890308 -0.992393 -0.994896 -0.999919 -0.998626 -0.911224 -0.985845 -0.61589 -0.636875 -0.261249 -0.502022
          -0.867046 -0.966422 -0.81338 -0.798461 -0.789452 -0.777586 -0.965479 -0.865206 -0.498711 -0.257445 -0.589304 -0.603923
          -0.940909 -0.823541 -0.953945 -0.970665 -0.987367 -0.990497 -0.844938 -0.953945 -0.878972 -0.929824 -0.61589 -0.782937
          -0.981789 -0.998626 -0.989378 -0.966422 -0.878972 -0.960215 -0.938266 -0.867046 -0.677034 -0.572121 -0.911224 -0.798461
          -0.373695 -0.594304 -0.373695 -0.290136 -0.171668 -0.140885 -0.549343 -0.318513 -0.901058 -0.867046 -0.999399 -0.960215
          -0.714767 -0.525975 -0.714767 -0.766806 0.528939 0.558188 0.1488 0.396672 0.798234 0.925462 0.752663 0.728544
          0.236201 0.479047 0.12687 0.115901 0.0720263 0.0391595 0.458726 0.21442 -0.00454402 0.247067 -0.0480374 -0.101989
          -0.22875 -0.300333 0.181652 -0.0696805 0.66027 0.614946 0.905481 0.768258 0.354516 0.104931 0.396672 0.448493
          0.97283 0.880235 0.992014 0.993603 0.998187 0.999785 0.893124 0.978712 0.612671 0.624295 0.260083 0.50109
          0.866609 0.966217 0.804785 0.796241 0.790896 0.783453 0.965652 0.865514 0.499166 0.257916 0.596299 0.605658
          0.951303 0.839975 0.971933 0.98021 0.989061 0.990876 0.852981 0.958772 -0.970893 -0.87606 -0.991852 -0.993012
          -0.996758 -0.998631 -0.885333 -0.975291 -0.611455 -0.619487 -0.259673 -0.500746 -0.866434 -0.966132 -0.801348 -0.795366
          -0.791559 -0.786139 -0.965729 -0.865653 -0.499384 -0.258146 -0.599596 -0.606477 -0.955623 -0.847263 -0.978521 -0.983831
          -0.989763 -0.991038 -0.856587 -0.960831 -0.730971 -0.764199 -0.398735 -0.619487 -0.926333 -0.991852 -0.902809 -0.880741
          -0.544668 -0.737779 -0.527293 -0.464474 -0.350149 -0.300333 -0.695735 -0.49177 -0.300333 -0.536013 -0.218367 -0.187002
          -0.144724 -0.13408 -0.518508 -0.280088 -0.840831 -0.824425 -0.986311 -0.91101 -0.58693 -0.359968 -0.650887 -0.673655
          0.805465 0.920669 0.833298 0.768258 0.596299 0.489133 0.865514 0.728544 0.992014 0.999971 0.85952 0.954922
          0.984952 0.91574 0.974846 0.994021 0.257916 0.159758 0.624161 0.417526 -0.0588685 -0.300333 -0.0804719 0.0172865
          0.343892 0.115901 0.279554 0.396672 0.596299 0.677851 0.225318 0.448493 0.775906 0.669101 0.958772 0.877561
          0.596299 0.407119 0.499166 0.624161 0.712 0.558188 0.586871 0.720318 0.910677 0.965652 0.686517 0.819603
          0.9883 0.99751 0.998893 0.981381 0.893124 0.829334 0.998187 0.958871 0.819603 0.889112 0.528939 0.703593
          0.939016 0.990876 0.968868 0.925462 0.778617 0.821332 0.461249 0.669167 0.946472 0.997305 0.937283 0.911072
          0.658195 0.821332 0.679972 0.600888 0.447692 0.377934 0.769538 0.588948 0.319905 0.552196 0.260083 0.214151
          0.151648 0.135819 0.526937 0.290207 0.85952 0.837154 0.992014 0.927354 0.624295 0.406223 0.669167 0.701079
          0.805465 0.633303 0.805465 0.852981 0.920669 0.943254 0.686517 0.846536 0.192586 0.268745 -0.218367 0.0282183
          0.499166 0.695098 0.499166 0.427892 0.995014 0.981381 0.951303 0.99751 0.916684 0.796241 0.905274 0.94197
          0.998341 0.981381 0.996512 0.989061 0.95511 0.925462 0.993603 0.990876 0.990876 0.993603 0.925462 0.95511
          0.989061 0.996512 0.981381 0.998341 0.94197 0.905274 0.796241 0.916684 0.99751 0.951303 0.981381 0.995014
          0.427892 0.499166 0.695098 0.499166 0.0282183 -0.218367 0.268745 0.192586 0.846536 0.686517 0.943254 0.920669
          0.852981 0.805465 0.633303 0.805465 0.701079 0.669167 0.406223 0.624295 0.927354 0.992014 0.837154 0.85952
          0.290207 0.526937 0.135819 0.151648 0.214151 0.260083 0.552196 0.319905 0.588948 0.769538 0.377934 0.447692
          0.600888 0.679972 0.821332 0.658195 0.911072 0.937283 0.997305 0.946472 0.669167 0.461249 0.821332 0.778617
          0.925462 0.968868 0.990876 0.939016 0.703593 0.528939 0.889112 0.819603 0.958871 0.998187 0.829334 0.893124
          0.981381 0.998893 0.99751 0.9883 0.819603 0.686517 0.965652 0.910677 0.720318 0.586871 0.558188 0.712
          0.624161 0.499166 0.407119 0.596299 0.877561 0.958772 0.669101 0.775906 0.448493 0.225318 0.677851 0.596299
          0.396672 0.279554 0.115901 0.343892 0.0172865 -0.0804719 -0.300333 -0.0588685 0.417526 0.624161 0.159758 0.257916
          0.994021 0.974846 0.91574 0.984952 0.954922 0.85952 0.999971 0.992014 0.728544 0.865514 0.489133 0.596299
          0.768258 0.833298 0.920669 0.805465 -0.673655 -0.650887 -0.359968 -0.58693 -0.91101 -0.986311 -0.824425 -0.840831
          -0.280088 -0.518508 -0.13408 -0.144724 -0.187002 -0.218367 -0.536013 -0.300333 -0.49177 -0.695735 -0.300333 -0.350149
          -0.464474 -0.527293 -0.737779 -0.544668 -0.880741 -0.902809 -0.991852 -0.926333 -0.619487 -0.398735 -0.764199 -0.730971
          -0.960831 -0.856587 -0.991038 -0.989763 -0.983831 -0.978521 -0.847263 -0.955623 -0.606477 -0.599596 -0.258146 -0.499384
          -0.865653 -0.965729 -0.786139 -0.791559 -0.795366 -0.801348 -0.966132 -0.866434 -0.500746 -0.259673 -0.619487 -0.611455
          -0.975291 -0.885333 -0.998631 -0.996758 -0.993012 -0.991852 -0.87606 -0.970893 0.958772 0.852981 0.990876 0.989061
          0.98021 0.971933 0.839975 0.951303 0.605658 0.596299 0.257916 0.499166 0.865514 0.965652 0.783453 0.790896
          0.796241 0.804785 0.966217 0.866609 0.50109 0.260083 0.624295 0.612671 0.978712 0.893124 0.999785 0.998187
          0.993603 0.992014 0.880235 0.97283 0.448493 0.396672 0.104931 0.354516 0.768258 0.905481 0.614946 0.66027
          -0.0696805 0.181652 -0.300333 -0.22875 -0.101989 -0.0480374 0.247067 -0.00454402 0.21442 0.458726 0.0391595 0.0720263
          0.115901 0.12687 0.479047 0.236201 0.728544 0.752663 0.925462 0.798234 0.396672 0.1488 0.558188 0.528939
          -0.766806 -0.714767 -0.525975 -0.714767 -0.960215 -0.999399 -0.867046 -0.901058 -0.318513 -0.549343 -0.140885 -0.171668
          -0.290136 -0.373695 -0.594304 -0.373695 -0.798461 -0.911224 -0.572121 -0.677034 -0.867046 -0.938266 -0.960215 -0.878972
          -0.966422 -0.989378 -0.998626 -0.981789 -0.782937 -0.61589 -0.929824 -0.878972 -0.953945 -0.844938 -0.990497 -0.987367
          -0.970665 -0.953945 -0.823541 -0.940909 -0.603923 -0.589304 -0.257445 -0.498711 -0.865206 -0.965479 -0.777586 -0.789452
          -0.798461 -0.81338 -0.966422 -0.867046 -0.502022 -0.261249 -0.636875 -0.61589 -0.985845 -0.911224 -0.998626 -0.999919
          -0.994896 -0.992393 -0.890308 -0.977204 0.930446 0.81185 0.988633 0.978108 0.910088 0.838584 0.754917 0.887867
          0.597803 0.564626 0.255946 0.497165 0.863975 0.964707 0.754917 0.783918 0.815136 0.870071 0.967595 0.870071
          0.51389 0.288539 0.743418 0.64797 0.999635 0.983966 0.930446 0.978108 0.999253 0.99425 0.944117 0.99425
          0.0522252 -0.109667 -0.202001 0.0191467 0.428676 0.597803 0.0856036 0.255946 -0.61589 -0.452384 -0.854526 -0.750068
          -0.502022 -0.373695 -0.290136 -0.47749 0.119254 0.359636 -0.140885 -0.046007 0.0856036 0.119254 0.428676 0.187249
          0.531057 0.63051 0.724969 0.564626 0.153147 -0.0780347 0.428676 0.325043 -0.0259579 0.183069 -0.355718 -0.207857
          0.119916 0.290207 0.334587 0.135819 0.290207 0.420177 0.539641 0.334587 -0.108445 -0.323142 0.214151 0.0717948
          -0.834378 -0.727785 -0.688175 -0.823541 -0.979838 -0.999959 -0.844938 -0.926429 -0.257445 -0.436016 0.103942 -0.075376
          -0.40412 -0.544589 -0.589304 -0.420109 0.94197 0.986174 0.992014 0.946472 0.750849 0.612671 0.937283 0.85952
          0.925462 0.98021 0.728544 0.839975 0.974846 0.998341 0.999828 0.977605 0.829334 0.69061 0.966217 0.916684
          0.769538 0.679972 0.576851 0.741242 0.635758 0.50109 0.461249 0.624295 0.880235 0.958871 0.669167 0.778617
          -0.355718 -0.273924 -0.0259579 -0.273924 -0.70158 -0.855217 -0.498711 -0.574538 0.229557 -0.00955188 0.48795 0.392141
          0.214151 0.135819 -0.108445 0.135819 -0.191294 -0.436016 0.00681394 -0.0424001 -0.108445 -0.125004 -0.467562 -0.224406
          -0.688175 -0.727785 -0.893367 -0.753138 -0.339457 -0.0919012 -0.529417 -0.483189 -0.926429 -0.987367 -0.765479 -0.844938
          -0.947611 -0.975453 -0.999526 -0.965479 -0.998626 -0.994896 -0.985845 -0.999526 -0.902127 -0.789452 -0.993195 -0.965479
          -0.191294 -0.306778 -0.451836 -0.240937 0.214151 0.434001 -0.075376 0.0394088 -0.740572 -0.559631 -0.893367 -0.844938
          -0.70158 -0.603923 -0.467562 -0.660792 0.0523631 -0.103188 -0.176901 0.0279179 0.430891 0.610816 0.109072 0.259464
          -0.606477 -0.423969 -0.832803 -0.740775 -0.499384 -0.353933 -0.282302 -0.477059 0.320653 0.500567 -0.0293461 0.141217
          0.473096 0.623046 0.641082 0.480015 0.547282 0.676012 0.725445 0.566749 0.188995 -0.0129599 0.514094 0.365505
          0.610816 0.771163 0.335708 0.459158 0.687309 0.785549 0.850843 0.714775 0.854794 0.914043 0.966085 0.881013
          0.579536 0.380239 0.799499 0.714775 -0.322268 -0.185065 -0.0621548 -0.282302 -0.666523 -0.812659 -0.393067 -0.521428
          0.35066 0.141217 0.635111 0.514094 0.251714 0.117128 -0.00477327 0.212657 -0.949669 -0.993012 -0.78315 -0.87606
          -0.987831 -0.999745 -0.998724 -0.989261 -0.998631 -0.994363 -0.982143 -0.999708 -0.902809 -0.795366 -0.995064 -0.966132
          -0.300333 -0.464474 -0.49177 -0.310389 0.0720263 0.257916 -0.290232 -0.112711 -0.861489 -0.751152 -0.986311 -0.940211
          -0.764199 -0.643148 -0.619487 -0.757717 -0.578719 -0.423969 -0.400828 -0.571684 -0.837685 -0.925027 -0.585717 -0.722882
          0.117128 -0.0703614 0.466143 0.297883 -0.0539495 -0.225766 -0.250069 -0.0621548 -0.791559 -0.899259 -0.535961 -0.666523
          -0.865653 -0.931742 -0.958266 -0.87876 -0.918021 -0.972484 -0.978521 -0.92156 -0.704531 -0.550357 -0.906975 -0.822852
          0.562737 0.39094 0.816739 0.705074 0.415546 0.245407 0.226032 0.409418 0.347316 0.187096 0.128345 0.328421
          0.675215 0.808621 0.378546 0.528578 0.999485 0.977543 0.972791 0.999226 0.941776 0.862543 0.999692 0.987569
          0.719586 0.836367 0.421658 0.579503 0.828631 0.913651 0.922064 0.832519 -0.630116 -0.759546 -0.771514 -0.634974
          -0.302519 -0.119789 -0.625232 -0.472766 -0.988334 -0.94275 -0.976904 -0.999482 -0.946727 -0.875324 -0.866281 -0.944756
          -0.356954 -0.164726 -0.658856 -0.522211 -0.215506 -0.054963 0.00381836 -0.196543 -0.132671 0.0431337 0.0628071 -0.126234
          -0.489446 -0.649385 -0.151931 -0.320807 0.961971 0.910758 0.862203 0.951634 0.992674 0.944255 0.977543 0.998135
          0.562737 0.72436 0.258283 0.403274 0.654714 0.756857 0.820741 0.680267 0.992941 0.994339 0.90782 0.955911
          0.999226 0.996433 0.971582 0.999934 0.973306 0.931323 0.884552 0.964145 0.985707 0.92478 0.988698 0.999934
          0.962151 0.888038 0.997147 0.995789 0.914043 0.838684 0.799499 0.904686 0.870086 0.771163 0.756347 0.86634
          0.990794 0.998135 0.881013 0.949052 0.774681 0.865733 0.895636 0.78768 0.475891 0.28393 0.743129 0.628452
          0.99966 0.983185 0.934017 0.978153 0.993771 0.961971 0.942515 0.991129 -0.633592 -0.423969 -0.802226 -0.752442
          -0.626875 -0.550357 -0.346045 -0.564611 -0.176901 -0.103188 0.165177 -0.0867758 -0.557502 -0.746635 -0.346045 -0.41628
          -0.994083 -0.999708 -0.974576 -0.999708 -0.866434 -0.717114 -0.963615 -0.936878 -0.887164 -0.972484 -0.734862 -0.796922
          -0.891264 -0.925027 -0.989763 -0.925027 0.335708 0.430891 0.610816 0.402126 -0.0703614 -0.306329 0.204788 0.101004
          0.821767 0.66454 0.949052 0.907858 0.799499 0.735932 0.579536 0.756347 0.380239 0.141217 0.598423 0.527479