<?xml version="1.0"?>
<VTKFile type="UnstructuredGrid" version="0.1" byte_order="LittleEndian">
  <UnstructuredGrid>
    <Piece NumberOfCells="32" NumberOfPoints="25">
      <PointData Scalars="Uh">
        <DataArray type="Float32" Name="Uh" NumberOfComponents="1" format="ascii">
          0.170612 -1.16793 -0.160576 0.173244 -2.16532 -3.83468 1.84678 1.19703 3.8798 -0.170863 1.15907 0.168911
          2.16575 3.83425 -1.83384 0.176484 -0.10569 0.352503 -0.653728 -1.44661 1.85586 0.251293 1.54606 2.96919
          0.037805
        </DataArray>
      </PointData>
      <Points>
        <DataArray type="Float32" Name="Coordinates" NumberOfComponents="3" format="ascii">
          1 0 0 1 -1 0 2 0 0 0 0 0
          2 -1 0 2 -2 0 2 1 0 1 1 0
          2 2 0 0 -1 0 -1 -1 0 0 -2 0
          -1 -2 0 -2 -2 0 1 -2 0 -1 0 0
          -1 1 0 -2 0 0 -2 1 0 -2 2 0
          -2 -1 0 0 1 0 0 2 0 1 2 0
          -1 2 0
        </DataArray>
      </Points>
      <Cells>
        <DataArray type="Int32" Name="connectivity" NumberOfComponents="1" format="ascii">
          0 1 2 0 3 1 4 1 5 4 2 1
          6 7 2 6 8 7 0 7 3 0 2 7
          9 10 11 9 3 10 12 10 13 12 11 10
          14 1 11 14 5 1 9 1 3 9 11 1
          15 16 17 15 3 16 18 16 19 18 17 16
          20 10 17 20 13 10 15 10 3 15 17 10
          21 7 22 21 3 7 23 7 8 23 22 7
          24 16 22 24 19 16 21 16 3 21 22 16
        </DataArray>
        <DataArray type="Int32" Name="offsets" NumberOfComponents="1" format="ascii">
          3 6 9 12 15 18 21 24 27 30 33 36
          39 42 45 48 51 54 57 60 63 66 69 72
          75 78 81 84 87 90 93 96
        </DataArray>
        <DataArray type="UInt8" Name="types" NumberOfComponents="1" format="ascii">
          5 5 5 5 5 5 5 5 5 5 5 5
          5 5 5 5 5 5 5 5 5 5 5 5
          5 5 5 5 5 5 5 5
        </DataArray>
      </Cells>
    </Piece>
  </UnstructuredGrid>
</VTKFile>
