<?xml version="1.0"?>
<VTKFile type="UnstructuredGrid" version="0.1" byte_order="LittleEndian">
  <UnstructuredGrid>
    <Piece NumberOfCells="128" NumberOfPoints="81">
      <PointData Scalars="Uh">
        <DataArray type="Float32" Name="Uh" NumberOfComponents="1" format="ascii">
          -0.539635 -0.708622 0.043677 -1.04018 0.0419898 -0.0419513 0.0468187 -0.286365 0.0548203 -1.45801 -2.29132 -2.04162
          -3.04157 -3.95843 -1.04165 1.54035 0.703318 1.96238 1.0259 0.958195 2.97553 2.31542 4.0281 0.45626
          0.293302 0.544056 0.708421 -0.0383428 1.04294 -0.0405988 0.0414742 -0.0351029 0.298882 1.4581 2.29101 2.042
          3.04159 3.95841 1.04173 -1.54103 -0.707623 -1.95849 -0.958448 -2.95844 -0.456663 -0.0360537 0.116795 0.0740878
          -0.0489141 0.386547 0.601011 0.0256392 -0.165291 -0.193267 -0.595664 -0.515213 -1.09275 -1.59215 0.0478227 1.53962
          0.706393 1.96003 1.12054 2.95845 0.450506 0.680859 1.3314 0.40798 0.865319 1.40019 0.0387141 1.80719
          2.84974 3.60619 2.13391 -0.106248 0.46808 -0.0877786 0.655262 -0.840577 0.261566
        </DataArray>
      </PointData>
      <Points>
        <DataArray type="Float32" Name="Coordinates" NumberOfComponents="3" format="ascii">
          1 -0.5 0 1.5 -0.5 0 1 0 0 1 -1 0
          1.5 0 0 2 0 0 0.5 0 0 0.5 -0.5 0
          0 0 0 1.5 -1 0 1.5 -1.5 0 2 -1 0
          2 -1.5 0 2 -2 0 2 -0.5 0 1.5 1 0
          1.5 0.5 0 2 1 0 1 1 0 2 0.5 0
          2 1.5 0 1.5 1.5 0 2 2 0 1 0.5 0
          0.5 0.5 0 -0.5 -1 0 -0.5 -1.5 0 0 -1 0
          -1 -1 0 0 -1.5 0 0 -2 0 0 -0.5 0
          -0.5 -0.5 0 -1 -1.5 0 -1.5 -1.5 0 -1 -2 0
          -1.5 -2 0 -2 -2 0 -0.5 -2 0 1 -1.5 0
          0.5 -1.5 0 1 -2 0 0.5 -2 0 1.5 -2 0
          0.5 -1 0 -1 0.5 0 -1.5 0.5 0 -1 0 0
          -1 1 0 -1.5 0 0 -2 0 0 -0.5 0 0
          -0.5 0.5 0 -1.5 1 0 -1.5 1.5 0 -2 1 0
          -2 1.5 0 -2 2 0 -2 0.5 0 -1.5 -1 0
          -1.5 -0.5 0 -2 -1 0 -2 -0.5 0 -2 -1.5 0
          -1 -0.5 0 0.5 1 0 0.5 1.5 0 0 1 0
          0 1.5 0 0 2 0 0 0.5 0 1 1.5 0
          1 2 0 1.5 2 0 0.5 2 0 -1 1.5 0
          -0.5 1.5 0 -1 2 0 -0.5 2 0 -1.5 2 0
          -0.5 1 0
        </DataArray>
      </Points>
      <Cells>
        <DataArray type="Int32" Name="connectivity" NumberOfComponents="1" format="ascii">
          0 1 2 0 3 1 4 1 5 4 2 1
          6 7 2 6 8 7 0 7 3 0 2 7
          9 10 11 9 3 10 12 10 13 12 11 10
          14 1 11 14 5 1 9 1 3 9 11 1
          15 16 17 15 18 16 19 16 5 19 17 16
          20 21 17 20 22 21 15 21 18 15 17 21
          23 24 2 23 18 24 6 24 8 6 2 24
          4 16 2 4 5 16 23 16 18 23 2 16
          25 26 27 25 28 26 29 26 30 29 27 26
          31 32 27 31 8 32 25 32 28 25 27 32
          33 34 35 33 28 34 36 34 37 36 35 34
          38 26 35 38 30 26 33 26 28 33 35 26
          39 40 41 39 3 40 42 40 30 42 41 40
          43 10 41 43 13 10 39 10 3 39 41 10
          44 7 27 44 3 7 31 7 8 31 27 7
          29 40 27 29 30 40 44 40 3 44 27 40
          45 46 47 45 48 46 49 46 50 49 47 46
          51 52 47 51 8 52 45 52 48 45 47 52
          53 54 55 53 48 54 56 54 57 56 55 54
          58 46 55 58 50 46 53 46 48 53 55 46
          59 60 61 59 28 60 62 60 50 62 61 60
          63 34 61 63 37 34 59 34 28 59 61 34
          64 32 47 64 28 32 51 32 8 51 47 32
          49 60 47 49 50 60 64 60 28 64 47 60
          65 66 67 65 18 66 68 66 69 68 67 66
          70 24 67 70 8 24 65 24 18 65 67 24
          71 21 72 71 18 21 73 21 22 73 72 21
          74 66 72 74 69 66 71 66 18 71 72 66
          75 76 77 75 48 76 78 76 69 78 77 76
          79 54 77 79 57 54 75 54 48 75 77 54
          80 52 67 80 48 52 70 52 8 70 67 52
          68 76 67 68 69 76 80 76 48 80 67 76
        </DataArray>
        <DataArray type="Int32" Name="offsets" NumberOfComponents="1" format="ascii">
          3 6 9 12 15 18 21 24 27 30 33 36
          39 42 45 48 51 54 57 60 63 66 69 72
          75 78 81 84 87 90 93 96 99 102 105 108
          111 114 117 120 123 126 129 132 135 138 141 144
          147 150 153 156 159 162 165 168 171 174 177 180
          183 186 189 192 195 198 201 204 207 210 213 216
          219 222 225 228 231 234 237 240 243 246 249 252
          255 258 261 264 267 270 273 276 279 282 285 288
          291 294 297 300 303 306 309 312 315 318 321 324
          327 330 333 336 339 342 345 348 351 354 357 360
          363 366 369 372 375 378 381 384
        </DataArray>
        <DataArray type="UInt8" Name="types" NumberOfComponents="1" format="ascii">
          5 5 5 5 5 5 5 5 5 5 5 5
          5 5 5 5 5 5 5 5 5 5 5 5
          5 5 5 5 5 5 5 5 5 5 5 5
          5 5 5 5 5 5 5 5 5 5 5 5
          5 5 5 5 5 5 5 5 5 5 5 5
          5 5 5 5 5 5 5 5 5 5 5 5
          5 5 5 5 5 5 5 5 5 5 5 5
          5 5 5 5 5 5 5 5 5 5 5 5
          5 5 5 5 5 5 5 5 5 5 5 5
          5 5 5 5 5 5 5 5 5 5 5 5
          5 5 5 5 5 5 5 5
        </DataArray>
      </Cells>
    </Piece>
  </UnstructuredGrid>
</VTKFile>
