<?xml version="1.0"?>
<VTKFile type="UnstructuredGrid" version="0.1" byte_order="LittleEndian">
  <UnstructuredGrid>
    <Piece NumberOfCells="512" NumberOfPoints="289">
      <PointData Scalars="Uh">
        <DataArray type="Float32" Name="Uh" NumberOfComponents="1" format="ascii">
          -0.613857 -0.321914 -0.509394 -0.739091 -0.25907 0.0121305 -0.759677 -0.926532 -1.00989 -0.384717 -0.42678 0.0112516
          0.0108154 -0.0103919 0.011724 -0.133738 -0.175445 0.0125349 -0.259076 0.0125429 0.0125598 -0.070935 0.0124183 -0.36341
          -0.572044 -1.88522 -2.177 -1.48933 -2.26029 -1.73946 -2.0104 -1.2392 -1.57263 -2.61453 -3.07288 -3.01041
          -3.51041 -3.98959 -2.5104 -0.864352 -1.32271 -1.0104 -1.5104 -0.510393 -1.13503 1.11556 1.32381 1.51138
          0.740919 1.76141 1.99011 1.26115 0.930792 1.01303 0.886014 0.42764 0.989604 0.489609 1.48965 2.64381
          2.17772 2.99606 2.27772 2.49082 3.51607 3.13655 4.22238 1.86046 1.56546 0.390341 0.179731 0.494304
          0.266051 0.242342 0.746339 0.582341 0.117147 0.0750746 0.365731 0.324614 0.637537 0.615291 0.323694 0.511465
          0.739978 0.26152 -0.00932633 0.761401 0.927644 1.01117 0.385854 0.427279 -0.00997449 -0.0102097 0.0104057 -0.00971442
          0.137833 0.178743 -0.00824619 0.263401 -0.00889727 -0.0076802 0.07637 0.36629 0.574516 1.88572 2.17722 1.48993
          2.2607 1.73975 2.01042 1.24011 1.57338 2.6147 3.07301 3.01042 3.51043 3.98957 2.51042 0.864788
          1.32311 1.01041 1.51042 0.510413 1.13582 -1.11431 -1.32278 -1.51017 -0.739253 -1.7603 -1.98959 -1.26004
          -0.926638 -0.885246 -0.426905 -0.989595 -0.489591 -1.48959 -2.63535 -2.17701 -2.98959 -2.48959 -3.48959 -1.86442
          -0.384352 -0.175867 -0.488838 -0.238703 -0.738947 -0.112996 -0.36421 -0.322304 -0.634869 0.0616019 0.110159 0.0174106
          0.0792341 0.00917392 0.0276024 0.0066378 -0.0192567 -0.0121186 0.196196 0.299757 0.352073 0.49828 0.620148 0.193711
          -0.107692 -0.122426 -0.0050825 -0.0495054 0.00323135 0.0150413 -0.0640282 0.0182264 0.0570599 -0.403038 -0.564656 -0.22332
          -0.563427 -0.342551 -0.483907 -0.106848 -0.22013 -0.790442 -1.03963 -1.06062 -1.35301 -1.62585 -0.770996 0.0901563
          -0.144978 0.079199 -0.200587 0.353123 -0.0927402 1.11739 1.32636 1.51008 0.744 1.76127 1.98892 1.26103
          0.928004 0.827537 0.646625 1.11807 0.874169 1.4832 2.6356 2.17732 2.98956 2.48956 3.48957 1.8651
          0.387785 0.180237 0.490451 0.235367 0.740085 0.119704 0.448072 0.261892 0.634622 0.994598 0.853341 0.63133
          1.37031 0.539336 0.420676 0.710245 1.13847 1.1549 1.42634 0.895937 1.12191 1.36548 0.662715 0.137755
          0.170952 -0.024445 0.176367 -0.0100665 0.384988 2.0701 2.61149 1.83284 2.32246 2.83037 1.32367 2.88799
          3.556 3.90016 3.19132 1.72681 2.04857 2.10164 2.46594 1.7334 1.62287 0.194808 0.20335 -0.0710942
          0.438158 -0.106393 -0.12268 -0.0399484 0.16144 0.510657 0.8391 0.623575 0.994443 0.250411 -0.727888 -0.395082
          -0.872668 -0.497699 -1.24929 -0.295492 0.0995017 0.163576 0.236008 0.343396 0.122573 -0.105 0.679287 0.492885
          0.317126
        </DataArray>
      </PointData>
      <Points>
        <DataArray type="Float32" Name="Coordinates" NumberOfComponents="3" format="ascii">
          1.25 -0.5 0 1.25 -0.25 0 1 -0.5 0 1.5 -0.5 0
          1 -0.25 0 1 0 0 1 -0.75 0 1.25 -0.75 0
          1 -1 0 1.5 -0.25 0 1.75 -0.25 0 1.5 0 0
          1.75 0 0 2 0 0 1.25 0 0 0.5 -0.25 0
          0.75 -0.25 0 0.5 0 0 0.5 -0.5 0 0.75 0 0
          0.25 0 0 0.25 -0.25 0 0 0 0 0.75 -0.5 0
          0.75 -0.75 0 1.5 -1.25 0 1.75 -1.25 0 1.5 -1 0
          1.5 -1.5 0 1.75 -1 0 2 -1 0 1.25 -1 0
          1.25 -1.25 0 1.75 -1.5 0 1.75 -1.75 0 2 -1.5 0
          2 -1.75 0 2 -2 0 2 -1.25 0 1.75 -0.5 0
          1.75 -0.75 0 2 -0.5 0 2 -0.75 0 2 -0.25 0
          1.5 -0.75 0 1.5 0.75 0 1.75 0.75 0 1.5 1 0
          1.5 0.5 0 1.75 1 0 2 1 0 1.25 1 0
          1.25 0.75 0 1 1 0 1.75 0.5 0 1.75 0.25 0
          2 0.5 0 2 0.25 0 2 0.75 0 1.75 1.5 0
          1.75 1.25 0 2 1.5 0 1.5 1.5 0 2 1.25 0
          2 1.75 0 1.75 1.75 0 2 2 0 1.5 1.25 0
          1.25 1.25 0 0.75 0.5 0 0.75 0.25 0 1 0.5 0
          0.5 0.5 0 1 0.25 0 1 0.75 0 0.75 0.75 0
          0.5 0.25 0 0.25 0.25 0 1.5 0.25 0 1.25 0.25 0
          1.25 0.5 0 -0.5 -1.25 0 -0.25 -1.25 0 -0.5 -1 0
          -0.5 -1.5 0 -0.25 -1 0 0 -1 0 -0.75 -1 0
          -0.75 -1.25 0 -1 -1 0 -0.25 -1.5 0 -0.25 -1.75 0
          0 -1.5 0 0 -1.75 0 0 -2 0 0 -1.25 0
          -0.25 -0.5 0 -0.25 -0.75 0 0 -0.5 0 -0.5 -0.5 0
          0 -0.75 0 0 -0.25 0 -0.25 -0.25 0 -0.5 -0.75 0
          -0.75 -0.75 0 -1.25 -1.5 0 -1.25 -1.75 0 -1 -1.5 0
          -1.5 -1.5 0 -1 -1.75 0 -1 -2 0 -1 -1.25 0
          -1.25 -1.25 0 -1.5 -1.75 0 -1.75 -1.75 0 -1.5 -2 0
          -1.75 -2 0 -2 -2 0 -1.25 -2 0 -0.5 -1.75 0
          -0.75 -1.75 0 -0.5 -2 0 -0.75 -2 0 -0.25 -2 0
          -0.75 -1.5 0 0.75 -1.5 0 0.75 -1.75 0 1 -1.5 0
          0.5 -1.5 0 1 -1.75 0 1 -2 0 1 -1.25 0
          0.75 -1.25 0 0.5 -1.75 0 0.25 -1.75 0 0.5 -2 0
          0.25 -2 0 0.75 -2 0 1.5 -1.75 0 1.25 -1.75 0
          1.5 -2 0 1.25 -2 0 1.75 -2 0 1.25 -1.5 0
          0.5 -0.75 0 0.25 -0.75 0 0.5 -1 0 0.25 -1 0
          0.75 -1 0 0.25 -0.5 0 0.25 -1.5 0 0.25 -1.25 0
          0.5 -1.25 0 -1.25 0.5 0 -1.25 0.25 0 -1 0.5 0
          -1.5 0.5 0 -1 0.25 0 -1 0 0 -1 0.75 0
          -1.25 0.75 0 -1 1 0 -1.5 0.25 0 -1.75 0.25 0
          -1.5 0 0 -1.75 0 0 -2 0 0 -1.25 0 0
          -0.5 0.25 0 -0.75 0.25 0 -0.5 0 0 -0.5 0.5 0
          -0.75 0 0 -0.25 0 0 -0.25 0.25 0 -0.75 0.5 0
          -0.75 0.75 0 -1.5 1.25 0 -1.75 1.25 0 -1.5 1 0
          -1.5 1.5 0 -1.75 1 0 -2 1 0 -1.25 1 0
          -1.25 1.25 0 -1.75 1.5 0 -1.75 1.75 0 -2 1.5 0
          -2 1.75 0 -2 2 0 -2 1.25 0 -1.75 0.5 0
          -1.75 0.75 0 -2 0.5 0 -2 0.75 0 -2 0.25 0
          -1.5 0.75 0 -1.5 -0.75 0 -1.75 -0.75 0 -1.5 -1 0
          -1.5 -0.5 0 -1.75 -1 0 -2 -1 0 -1.25 -1 0
          -1.25 -0.75 0 -1.75 -0.5 0 -1.75 -0.25 0 -2 -0.5 0
          -2 -0.25 0 -2 -0.75 0 -1.75 -1.5 0 -1.75 -1.25 0
          -2 -1.5 0 -2 -1.25 0 -2 -1.75 0 -1.5 -1.25 0
          -0.75 -0.5 0 -0.75 -0.25 0 -1 -0.5 0 -1 -0.25 0
          -1 -0.75 0 -0.5 -0.25 0 -1.5 -0.25 0 -1.25 -0.25 0
          -1.25 -0.5 0 0.5 1.25 0 0.25 1.25 0 0.5 1 0
          0.5 1.5 0 0.25 1 0 0 1 0 0.75 1 0
          0.75 1.25 0 0.25 1.5 0 0.25 1.75 0 0 1.5 0
          0 1.75 0 0 2 0 0 1.25 0 0.25 0.5 0
          0.25 0.75 0 0 0.5 0 0 0.75 0 0 0.25 0
          0.5 0.75 0 1.25 1.5 0 1.25 1.75 0 1 1.5 0
          1 1.75 0 1 2 0 1 1.25 0 1.5 1.75 0
          1.5 2 0 1.75 2 0 1.25 2 0 0.5 1.75 0
          0.75 1.75 0 0.5 2 0 0.75 2 0 0.25 2 0
          0.75 1.5 0 -0.75 1.5 0 -0.75 1.75 0 -1 1.5 0
          -0.5 1.5 0 -1 1.75 0 -1 2 0 -1 1.25 0
          -0.75 1.25 0 -0.5 1.75 0 -0.25 1.75 0 -0.5 2 0
          -0.25 2 0 -0.75 2 0 -1.5 1.75 0 -1.25 1.75 0
          -1.5 2 0 -1.25 2 0 -1.75 2 0 -1.25 1.5 0
          -0.5 0.75 0 -0.25 0.75 0 -0.5 1 0 -0.25 1 0
          -0.75 1 0 -0.25 0.5 0 -0.25 1.5 0 -0.25 1.25 0
          -0.5 1.25 0
        </DataArray>
      </Points>
      <Cells>
        <DataArray type="Int32" Name="connectivity" NumberOfComponents="1" format="ascii">
          0 1 2 0 3 1 4 1 5 4 2 1
          6 7 2 6 8 7 0 7 3 0 2 7
          9 10 11 9 3 10 12 10 13 12 11 10
          14 1 11 14 5 1 9 1 3 9 11 1
          15 16 17 15 18 16 19 16 5 19 17 16
          20 21 17 20 22 21 15 21 18 15 17 21
          23 24 2 23 18 24 6 24 8 6 2 24
          4 16 2 4 5 16 23 16 18 23 2 16
          25 26 27 25 28 26 29 26 30 29 27 26
          31 32 27 31 8 32 25 32 28 25 27 32
          33 34 35 33 28 34 36 34 37 36 35 34
          38 26 35 38 30 26 33 26 28 33 35 26
          39 40 41 39 3 40 42 40 30 42 41 40
          43 10 41 43 13 10 39 10 3 39 41 10
          44 7 27 44 3 7 31 7 8 31 27 7
          29 40 27 29 30 40 44 40 3 44 27 40
          45 46 47 45 48 46 49 46 50 49 47 46
          51 52 47 51 53 52 45 52 48 45 47 52
          54 55 56 54 48 55 57 55 13 57 56 55
          58 46 56 58 50 46 54 46 48 54 56 46
          59 60 61 59 62 60 63 60 50 63 61 60
          64 65 61 64 66 65 59 65 62 59 61 65
          67 68 47 67 62 68 51 68 53 51 47 68
          49 60 47 49 50 60 67 60 62 67 47 60
          69 70 71 69 72 70 73 70 5 73 71 70
          74 75 71 74 53 75 69 75 72 69 71 75
          76 77 17 76 72 77 20 77 22 20 17 77
          19 70 17 19 5 70 76 70 72 76 17 70
          78 79 11 78 48 79 14 79 5 14 11 79
          12 55 11 12 13 55 78 55 48 78 11 55
          80 52 71 80 48 52 74 52 53 74 71 52
          73 79 71 73 5 79 80 79 48 80 71 79
          81 82 83 81 84 82 85 82 86 85 83 82
          87 88 83 87 89 88 81 88 84 81 83 88
          90 91 92 90 84 91 93 91 94 93 92 91
          95 82 92 95 86 82 90 82 84 90 92 82
          96 97 98 96 99 97 100 97 86 100 98 97
          101 102 98 101 22 102 96 102 99 96 98 102
          103 104 83 103 99 104 87 104 89 87 83 104
          85 97 83 85 86 97 103 97 99 103 83 97
          105 106 107 105 108 106 109 106 110 109 107 106
          111 112 107 111 89 112 105 112 108 105 107 112
          113 114 115 113 108 114 116 114 117 116 115 114
          118 106 115 118 110 106 113 106 108 113 115 106
          119 120 121 119 84 120 122 120 110 122 121 120
          123 91 121 123 94 91 119 91 84 119 121 91
          124 88 107 124 84 88 111 88 89 111 107 88
          109 120 107 109 110 120 124 120 84 124 107 120
          125 126 127 125 128 126 129 126 130 129 127 126
          131 132 127 131 8 132 125 132 128 125 127 132
          133 134 135 133 128 134 136 134 94 136 135 134
          137 126 135 137 130 126 133 126 128 133 135 126
          138 139 140 138 28 139 141 139 130 141 140 139
          142 34 140 142 37 34 138 34 28 138 140 34
          143 32 127 143 28 32 131 32 8 131 127 32
          129 139 127 129 130 139 143 139 28 143 127 139
          144 145 146 144 18 145 147 145 86 147 146 145
          148 24 146 148 8 24 144 24 18 144 146 24
          149 21 98 149 18 21 101 21 22 101 98 21
          100 145 98 100 86 145 149 145 18 149 98 145
          150 151 92 150 128 151 95 151 86 95 92 151
          93 134 92 93 94 134 150 134 128 150 92 134
          152 132 146 152 128 132 148 132 8 148 146 132
          147 151 146 147 86 151 152 151 128 152 146 151
          153 154 155 153 156 154 157 154 158 157 155 154
          159 160 155 159 161 160 153 160 156 153 155 160
          162 163 164 162 156 163 165 163 166 165 164 163
          167 154 164 167 158 154 162 154 156 162 164 154
          168 169 170 168 171 169 172 169 158 172 170 169
          173 174 170 173 22 174 168 174 171 168 170 174
          175 176 155 175 171 176 159 176 161 159 155 176
          157 169 155 157 158 169 175 169 171 175 155 169
          177 178 179 177 180 178 181 178 182 181 179 178
          183 184 179 183 161 184 177 184 180 177 179 184
          185 186 187 185 180 186 188 186 189 188 187 186
          190 178 187 190 182 178 185 178 180 185 187 178
          191 192 193 191 156 192 194 192 182 194 193 192
          195 163 193 195 166 163 191 163 156 191 193 163
          196 160 179 196 156 160 183 160 161 183 179 160
          181 192 179 181 182 192 196 192 156 196 179 192
          197 198 199 197 200 198 201 198 202 201 199 198
          203 204 199 203 89 204 197 204 200 197 199 204
          205 206 207 205 200 206 208 206 166 208 207 206
          209 198 207 209 202 198 205 198 200 205 207 198
          210 211 212 210 108 211 213 211 202 213 212 211
          214 114 212 214 117 114 210 114 108 210 212 114
          215 112 199 215 108 112 203 112 89 203 199 112
          201 211 199 201 202 211 215 211 108 215 199 211
          216 217 218 216 99 217 219 217 158 219 218 217
          220 104 218 220 89 104 216 104 99 216 218 104
          221 102 170 221 99 102 173 102 22 173 170 102
          172 217 170 172 158 217 221 217 99 221 170 217
          222 223 164 222 200 223 167 223 158 167 164 223
          165 206 164 165 166 206 222 206 200 222 164 206
          224 204 218 224 200 204 220 204 89 220 218 204
          219 223 218 219 158 223 224 223 200 224 218 223
          225 226 227 225 228 226 229 226 230 229 227 226
          231 232 227 231 53 232 225 232 228 225 227 232
          233 234 235 233 228 234 236 234 237 236 235 234
          238 226 235 238 230 226 233 226 228 233 235 226
          239 240 241 239 72 240 242 240 230 242 241 240
          243 77 241 243 22 77 239 77 72 239 241 77
          244 75 227 244 72 75 231 75 53 231 227 75
          229 240 227 229 230 240 244 240 72 244 227 240
          245 246 247 245 62 246 248 246 249 248 247 246
          250 68 247 250 53 68 245 68 62 245 247 68
          251 65 252 251 62 65 253 65 66 253 252 65
          254 246 252 254 249 246 251 246 62 251 252 246
          255 256 257 255 228 256 258 256 249 258 257 256
          259 234 257 259 237 234 255 234 228 255 257 234
          260 232 247 260 228 232 250 232 53 250 247 232
          248 256 247 248 249 256 260 256 228 260 247 256
          261 262 263 261 264 262 265 262 266 265 263 262
          267 268 263 267 161 268 261 268 264 261 263 268
          269 270 271 269 264 270 272 270 237 272 271 270
          273 262 271 273 266 262 269 262 264 269 271 262
          274 275 276 274 180 275 277 275 266 277 276 275
          278 186 276 278 189 186 274 186 180 274 276 186
          279 184 263 279 180 184 267 184 161 267 263 184
          265 275 263 265 266 275 279 275 180 279 263 275
          280 281 282 280 171 281 283 281 230 283 282 281
          284 176 282 284 161 176 280 176 171 280 282 176
          285 174 241 285 171 174 243 174 22 243 241 174
          242 281 241 242 230 281 285 281 171 285 241 281
          286 287 235 286 264 287 238 287 230 238 235 287
          236 270 235 236 237 270 286 270 264 286 235 270
          288 268 282 288 264 268 284 268 161 284 282 268
          283 287 282 283 230 287 288 287 264 288 282 287
        </DataArray>
        <DataArray type="Int32" Name="offsets" NumberOfComponents="1" format="ascii">
          3 6 9 12 15 18 21 24 27 30 33 36
          39 42 45 48 51 54 57 60 63 66 69 72
          75 78 81 84 87 90 93 96 99 102 105 108
          111 114 117 120 123 126 129 132 135 138 141 144
          147 150 153 156 159 162 165 168 171 174 177 180
          183 186 189 192 195 198 201 204 207 210 213 216
          219 222 225 228 231 234 237 240 243 246 249 252
          255 258 261 264 267 270 273 276 279 282 285 288
          291 294 297 300 303 306 309 312 315 318 321 324
          327 330 333 336 339 342 345 348 351 354 357 360
          363 366 369 372 375 378 381 384 387 390 393 396
          399 402 405 408 411 414 417 420 423 426 429 432
          435 438 441 444 447 450 453 456 459 462 465 468
          471 474 477 480 483 486 489 492 495 498 501 504
          507 510 513 516 519 522 525 528 531 534 537 540
          543 546 549 552 555 558 561 564 567 570 573 576
          579 582 585 588 591 594 597 600 603 606 609 612
          615 618 621 624 627 630 633 636 639 642 645 648
          651 654 657 660 663 666 669 672 675 678 681 684
          687 690 693 696 699 702 705 708 711 714 717 720
          723 726 729 732 735 738 741 744 747 750 753 756
          759 762 765 768 771 774 777 780 783 786 789 792
          795 798 801 804 807 810 813 816 819 822 825 828
          831 834 837 840 843 846 849 852 855 858 861 864
          867 870 873 876 879 882 885 888 891 894 897 900
          903 906 909 912 915 918 921 924 927 930 933 936
          939 942 945 948 951 954 957 960 963 966 969 972
          975 978 981 984 987 990 993 996 999 1002 1005 1008
          1011 1014 1017 1020 1023 1026 1029 1032 1035 1038 1041 1044
          1047 1050 1053 1056 1059 1062 1065 1068 1071 1074 1077 1080
          1083 1086 1089 1092 1095 1098 1101 1104 1107 1110 1113 1116
          1119 1122 1125 1128 1131 1134 1137 1140 1143 1146 1149 1152
          1155 1158 1161 1164 1167 1170 1173 1176 1179 1182 1185 1188
          1191 1194 1197 1200 1203 1206 1209 1212 1215 1218 1221 1224
          1227 1230 1233 1236 1239 1242 1245 1248 1251 1254 1257 1260
          1263 1266 1269 1272 1275 1278 1281 1284 1287 1290 1293 1296
          1299 1302 1305 1308 1311 1314 1317 1320 1323 1326 1329 1332
          1335 1338 1341 1344 1347 1350 1353 1356 1359 1362 1365 1368
          1371 1374 1377 1380 1383 1386 1389 1392 1395 1398 1401 1404
          1407 1410 1413 1416 1419 1422 1425 1428 1431 1434 1437 1440
          1443 1446 1449 1452 1455 1458 1461 1464 1467 1470 1473 1476
          1479 1482 1485 1488 1491 1494 1497 1500 1503 1506 1509 1512
          1515 1518 1521 1524 1527 1530 1533 1536
        </DataArray>
        <DataArray type="UInt8" Name="types" NumberOfComponents="1" format="ascii">
          5 5 5 5 5 5 5 5 5 5 5 5
          5 5 5 5 5 5 5 5 5 5 5 5
          5 5 5 5 5 5 5 5 5 5 5 5
          5 5 5 5 5 5 5 5 5 5 5 5
          5 5 5 5 5 5 5 5 5 5 5 5
          5 5 5 5 5 5 5 5 5 5 5 5
          5 5 5 5 5 5 5 5 5 5 5 5
          5 5 5 5 5 5 5 5 5 5 5 5
          5 5 5 5 5 5 5 5 5 5 5 5
          5 5 5 5 5 5 5 5 5 5 5 5
          5 5 5 5 5 5 5 5 5 5 5 5
          5 5 5 5 5 5 5 5 5 5 5 5
          5 5 5 5 5 5 5 5 5 5 5 5
          5 5 5 5 5 5 5 5 5 5 5 5
          5 5 5 5 5 5 5 5 5 5 5 5
          5 5 5 5 5 5 5 5 5 5 5 5
          5 5 5 5 5 5 5 5 5 5 5 5
          5 5 5 5 5 5 5 5 5 5 5 5
          5 5 5 5 5 5 5 5 5 5 5 5
          5 5 5 5 5 5 5 5 5 5 5 5
          5 5 5 5 5 5 5 5 5 5 5 5
          5 5 5 5 5 5 5 5 5 5 5 5
          5 5 5 5 5 5 5 5 5 5 5 5
          5 5 5 5 5 5 5 5 5 5 5 5
          5 5 5 5 5 5 5 5 5 5 5 5
          5 5 5 5 5 5 5 5 5 5 5 5
          5 5 5 5 5 5 5 5 5 5 5 5
          5 5 5 5 5 5 5 5 5 5 5 5
          5 5 5 5 5 5 5 5 5 5 5 5
          5 5 5 5 5 5 5 5 5 5 5 5
          5 5 5 5 5 5 5 5 5 5 5 5
          5 5 5 5 5 5 5 5 5 5 5 5
          5 5 5 5 5 5 5 5 5 5 5 5
          5 5 5 5 5 5 5 5 5 5 5 5
          5 5 5 5 5 5 5 5 5 5 5 5
          5 5 5 5 5 5 5 5 5 5 5 5
          5 5 5 5 5 5 5 5 5 5 5 5
          5 5 5 5 5 5 5 5 5 5 5 5
          5 5 5 5 5 5 5 5 5 5 5 5
          5 5 5 5 5 5 5 5 5 5 5 5
          5 5 5 5 5 5 5 5 5 5 5 5
          5 5 5 5 5 5 5 5 5 5 5 5
          5 5 5 5 5 5 5 5
        </DataArray>
      </Cells>
    </Piece>
  </UnstructuredGrid>
</VTKFile>
