<?xml version="1.0"?>
<VTKFile type="UnstructuredGrid" version="0.1" byte_order="LittleEndian">
  <UnstructuredGrid>
    <Piece NumberOfCells="2048" NumberOfPoints="1089">
      <PointData Scalars="Uh">
        <DataArray type="Float32" Name="Uh" NumberOfComponents="1" format="ascii">
          -0.470851 -0.418689 -0.621963 -0.314533 -0.559388 -0.502016 -0.684533 -0.517811 -0.747105 -0.277984 -0.142473 -0.251841
          -0.126738 0.00357573 -0.376935 -0.840761 -0.705283 -0.752158 -0.934566 -0.627092 -0.877219 -0.981438 -1.00228 -0.78347
          -0.856454 -0.403362 -0.205399 -0.377217 -0.434706 -0.189664 0.00309663 -0.564767 -0.606521 -0.221131 -0.231664 0.00285007
          0.00272576 -0.00259954 0.00297593 -0.1582 -0.168728 0.00333794 0.00322126 0.00346114 -0.340672 -0.152605 -0.0795499 -0.126458
          -0.183949 -0.0638126 0.00404857 -0.189093 -0.230852 -0.251718 -0.0952765 -0.105803 0.00381309 0.00369952 0.00393723 -0.0323193
          -0.042877 0.00431426 -0.0637491 0.00417474 0.00448 -0.0165576 0.0046807 -0.0899042 -0.14213 -0.470711 -0.543697 -0.371668
          -0.564546 -0.43424 -0.309089 -0.392521 -0.653147 -0.767796 -0.215296 -0.32998 -0.283017 -2.02856 -1.83062 -1.87749
          -2.18484 -1.68996 -1.49724 -2.06501 -2.2317 -2.25253 -1.97128 -2.10674 -1.74732 -1.87236 -2.0026 -1.62228
          -1.40865 -1.5441 -1.24715 -1.56493 -1.37219 -1.12211 -1.26799 -1.716 -1.89311 -2.84633 -3.04426 -2.62236
          -3.06509 -2.80988 -3.0026 -2.43484 -2.64319 -3.27864 -3.51822 -3.5026 -3.7526 -3.9974 -3.2526 -2.34112
          -2.5807 -2.5026 -2.7526 -2.2526 -2.40881 -1.09622 -1.16921 -0.872253 -1.31499 -0.934825 -1.0026 -0.809679
          -1.01804 -1.40359 -1.64318 -1.5026 -1.7526 -1.2526 -0.466053 -0.705642 -0.502601 -0.752601 -0.2526 -0.658683
          -1.02837 -1.20549 -1.12738 -1.31491 -0.939847 -1.09607 -1.53376 -1.41913 -1.21598 1.22221 1.42026 1.12355
          1.31568 1.31122 1.50405 0.935905 1.01897 0.748262 1.52933 1.64359 1.75338 1.87801 1.99743 1.62872
          1.09337 1.20737 1.25519 0.93662 1.37946 1.13093 0.983929 1.00623 1.03528 0.858015 0.654032 0.705914
          0.878031 0.43523 0.940316 0.997404 0.815749 0.60734 0.471514 0.23192 0.497402 0.247401 0.747403 1.40914
          1.16953 1.49741 1.24741 1.74741 1.09166 2.40621 2.58239 2.63132 2.18607 2.81685 2.99727 2.44499
          2.2338 2.26095 2.34711 2.10734 2.49753 2.24745 2.74753 3.28605 3.03691 3.50163 3.18063 3.24621
          3.83947 3.70328 4.23456 2.85556 2.67234 1.72216 1.54693 1.87198 1.56681 1.68609 2.05795 1.88909
          1.40787 1.27385 1.96715 1.83208 2.03548 0.280469 0.332298 0.37964 0.186475 0.441878 0.498965 0.317449
          0.233765 0.255308 0.222762 0.108018 0.248661 0.123512 0.37382 0.66079 0.546203 0.749172 0.566949 0.62412
          0.874451 0.770031 0.468512 0.396029 0.0982824 0.046001 0.124221 0.067089 0.0615209 0.186991 0.145389 0.0305495
          0.0203151 0.0925334 0.0822452 0.160574 0.347159 0.169979 0.373058 0.316066 0.185471 0.560652 0.519157 0.154494
          0.144206 0.216439 0.206156 0.409342 0.780116 0.707392 0.628835 0.566536 0.691166 0.848282 0.284961 0.420529
          0.467248 0.471951 0.419995 0.623036 0.315667 0.56067 0.503517 0.685409 0.518713 0.747792 0.279328 0.143862
          0.253404 0.128353 -0.00190288 0.378463 0.84201 0.706546 0.75363 0.935596 0.628578 0.878692 0.982669 1.00375
          0.784522 0.857306 0.403909 0.205974 0.377956 0.435068 0.190436 -0.00229016 0.565479 0.607047 0.221514 0.231852
          -0.00245128 -0.00252777 0.00260245 -0.00237306 0.159379 0.169697 -0.00211028 -0.00220401 -0.00201156 0.341603 0.154903 0.0818878
          0.129025 0.185988 0.0664254 -0.00137218 0.191642 0.233126 0.254272 0.0973656 0.107648 -0.00165965 -0.00178713 -0.00152252
          0.03554 0.0457605 -0.00101963 0.0668931 -0.00120784 -0.000803156 0.0201468 0.0927565 0.14496 0.472697 0.545423 0.373663
          0.566538 0.435982 0.311358 0.39479 0.654878 0.76953 0.217092 0.331739 0.285024 2.02895 1.83105 1.87803
          2.18508 1.69055 1.49785 2.0655 2.23204 2.25297 1.97156 2.10687 1.74761 1.8725 2.0026 1.62272
          1.40961 1.54485 1.24816 1.56586 1.37299 1.12334 1.26919 1.71672 1.89378 2.84648 3.04432 2.62255
          3.0652 2.80997 3.00261 2.43514 2.64344 3.27868 3.51826 3.50261 3.75261 3.99739 3.25261 2.34124
          2.58082 2.5026 2.75261 2.2526 2.40904 1.09655 1.16937 0.872588 1.31531 0.934991 1.0026 0.810188
          1.01853 1.40375 1.64333 1.5026 1.7526 1.2526 0.466232 0.705818 0.502602 0.752603 0.252603 0.659034
          1.02921 1.20631 1.12803 1.31555 0.940518 1.09708 1.53406 1.41959 1.21646 -1.22122 -1.41915 -1.12221
          -1.31501 -1.30973 -1.50245 -0.934691 -1.01808 -0.747171 -1.52857 -1.64319 -1.75253 -1.87757 -1.9974 -1.62749
          -1.09089 -1.20552 -1.25237 -0.934605 -1.37741 -1.12732 -0.981458 -1.03361 -0.856509 -0.653527 -0.705669 -0.877492
          -0.434767 -0.940048 -0.997397 -0.814936 -0.60659 -0.471288 -0.231702 -0.497397 -0.247397 -0.747397 -1.40881 -1.16922
          -1.4974 -1.2474 -1.7474 -1.09105 -2.4036 -2.58071 -2.62757 -2.18484 -2.81509 -2.9974 -2.44005 -2.2317
          -2.34633 -2.10674 -2.4974 -2.2474 -2.7474 -3.28384 -3.04426 -3.4974 -3.2474 -3.7474 -2.84112 -1.72121
          -1.54411 -1.87229 -1.68477 -2.05981 -1.40345 -1.96608 -1.83063 -2.03377 -0.277908 -0.330089 -0.376923 -0.184093
          -0.439515 -0.496897 -0.314324 -0.230924 -0.220655 -0.106018 -0.246803 -0.121751 -0.371848 -0.658369 -0.543738 -0.746986
          -0.62194 -0.872027 -0.465531 -0.0951555 -0.0429785 -0.121351 -0.0587598 -0.18393 -0.0271834 -0.0902773 -0.0797307 -0.157929
          -0.34601 -0.168902 -0.372131 -0.314683 -0.184608 -0.55965 -0.517913 -0.153192 -0.142682 -0.216007 -0.205515 -0.408655
          -0.778324 -0.705341 -0.627247 -0.564676 -0.689814 -0.846002 -0.283346 -0.418807 -0.46576 0.0865899 0.0665199 0.0554683
          0.121591 0.0463684 0.0310307 0.0628344 0.112011 0.0700455 0.0831546 0.0885616 0.0299071 0.0168468 0.0122889 0.0328694
          -0.00117343 0.0183636 0.0177883 -0.0261623 0.0255987 0.00779093 -0.0276917 -0.00352848 0.00969328 0.00643295 0.250665 0.329095
          0.204885 0.290127 0.27114 0.340301 0.135659 0.164593 0.385106 0.446851 0.489583 0.562309 0.628845 0.414733
          0.152344 0.219302 0.185437 0.263019 0.101122 0.169426 -0.148198 -0.0884884 -0.119739 -0.0682071 -0.0642703 0.0060667
          -0.0890041 -0.0512792 -0.0214131 -0.0809875 -0.0772259 -0.00472604 -0.000451746 0.00601121 -0.0316355 -0.0423619 0.00472896 -0.062514
          0.00468611 0.00478888 -0.0157423 -0.0893849 -0.146266 0.0383197 0.03838 0.0154753 0.0648209 0.0263567 0.0017821 0.0431031
          0.0470789 0.048618 -0.0111997 0.00641961 -0.0242254 -0.480821 -0.390587 -0.394455 -0.572776 -0.315215 -0.231296 -0.474676
          -0.577086 -0.555524 -0.466586 -0.537306 -0.35028 -0.410422 -0.476069 -0.290766 -0.165217 -0.234545 -0.11382 -0.211895
          -0.172533 -0.0559146 -0.0905861 -0.297722 -0.366989 -0.917559 -1.05262 -0.798288 -1.03191 -0.922818 -1.05277 -0.674215
          -0.777233 -1.18312 -1.31937 -1.34506 -1.49207 -1.63417 -1.19866 -0.665116 -0.798856 -0.762987 -0.907587 -0.619187
          -0.690608 -0.0296381 -0.0351982 0.0823947 -0.137044 0.0875035 0.0869501 0.0763086 -0.0187409 -0.159285 -0.289614 -0.192523
          -0.33389 -0.0522874 0.328726 0.203639 0.361299 0.224769 0.495949 0.181415 -0.0519179 -0.116833 -0.0834822 -0.159624
          -0.00884338 -0.0749338 -0.246014 -0.197127 -0.104704 1.22298 1.42054 1.1242 1.31641 1.31132 1.50369 0.937213
          1.02021 0.750415 1.52989 1.64431 1.75329 1.87816 1.99756 1.62859 1.09269 1.20729 1.25377 0.936804
          1.37879 1.12879 0.983231 1.03584 0.859297 0.755847 0.887849 0.840538 0.667218 0.983675 1.13038 0.817423
          0.604584 0.784543 0.669612 0.88668 0.758985 1.00892 1.41063 1.17445 1.50166 1.27777 1.74698 1.09256
          2.40393 2.5809 2.62781 2.18527 2.81522 2.99739 2.4404 2.23215 2.34659 2.10706 2.4974 2.24735
          2.74738 3.28391 3.04434 3.49739 3.24739 3.74739 2.84128 1.72206 1.54517 1.87306 1.68574 2.06037
          1.4046 1.96671 1.8315 2.0344 0.280842 0.332987 0.379477 0.187454 0.442094 0.499397 0.316902 0.233851
          0.223926 0.109479 0.249155 0.121042 0.374299 0.660379 0.546041 0.749038 0.624311 0.873794 0.467802 0.0982865
          0.0464017 0.124537 0.0623947 0.18684 0.0305697 0.0949517 0.0841012 0.161316 0.32015 0.282747 0.444303 0.313472
          0.38879 0.571785 0.518841 0.199018 0.111648 0.577243 0.490545 0.560565 0.78121 0.707797 0.630641 0.567485
          0.693817 0.848125 0.285191 0.422524 0.470848 0.932758 0.755772 1.00942 0.84931 0.819443 0.629608 1.19476
          1.10104 1.37762 0.689049 0.628884 0.537465 0.489035 0.433722 0.582473 0.94227 0.88626 0.714333 1.16619
          0.668504 0.879296 0.978721 1.09565 1.29331 1.28935 1.16005 1.14876 1.43441 1.03018 0.905826 1.26609
          1.42399 1.2882 1.40991 1.13089 1.24144 1.35658 1.01897 0.765002 0.893387 0.674266 0.790892 0.555115
          0.99445 0.152108 0.0767417 0.130837 0.181835 0.0662215 -0.00111501 0.192543 0.234322 0.194618 0.337953 0.180653
          0.308328 0.042423 0.0361447 0.0468903 0.000401469 0.00185418 -6.00372e-05 0.0929152 0.474654 0.549645 0.379233 0.459064
          0.313576 0.654395 0.360866 0.391152 0.289341 2.33994 2.21941 2.06023 2.62195 1.95033 1.83326 2.16338
          2.4632 2.48233 2.7378 2.33026 2.57375 2.82122 2.0836 1.38219 1.65734 1.31879 1.57582 1.13372
          1.76116 3.05122 3.38193 2.9048 3.2214 3.53974 2.57966 3.53813 3.89286 4.06623 3.716 2.90002
          3.06767 3.18198 3.36076 3.00157 2.77116 1.89075 2.07851 1.73554 2.03993 1.91187 2.09257 1.55732
          1.69599 2.24405 2.41493 2.45797 2.63957 2.27525 1.57756 1.75052 1.72536 1.90896 1.54097 1.59063
          1.38883 1.48993 1.6144 1.72688 1.4988 1.24731 2.18821 1.95382 1.82212 0.196898 0.0640381 0.187372
          0.211214 0.0650976 -0.0627028 0.308966 0.335042 0.430392 0.0619812 0.0539497 -0.0980973 -0.117016 -0.131133 -0.0800328
          0.0643584 0.0600175 -0.0309579 0.15395 -0.0463872 -0.0167708 0.062341 0.16568 0.27663 0.677982 0.734546 0.519126
          0.831193 0.564699 0.614986 0.472501 0.615242 0.903763 1.07826 0.986406 1.17149 0.800696 0.2244 0.400117
          0.24244 0.428714 0.0556551 0.370627 -0.558646 -0.630916 -0.719732 -0.403064 -0.802816 -0.881036 -0.637365 -0.492237
          -0.459449 -0.282725 -0.505649 -0.318389 -0.69334 -1.14705 -0.969466 -1.25723 -1.06913 -1.4457 -0.870438 -0.259892
          -0.147521 -0.303089 -0.180142 -0.426621 -0.115928 -0.247805 -0.218824 -0.35816 0.132635 0.203383 0.107027 0.151179
          0.165368 0.227125 0.0448552 0.0521997 0.239317 0.280702 0.335552 0.387849 0.281205 0.0881379 0.132993 0.115739
          0.171372 0.0588551 0.0922065 -0.0849779 -0.0439685 -0.100702 -0.0509722 -0.0340351 -0.0251295 0.169174 0.0453818 0.0442321
          0.584649 0.693728 0.672034 0.501742 0.791801 0.551288 0.480868 0.593834 0.486673 0.983917 0.883224 0.746596
          0.242962 0.202682 0.326099 0.274393 0.376109 0.129866 0.416455 0.351493 0.419559
        </DataArray>
      </PointData>
      <Points>
        <DataArray type="Float32" Name="Coordinates" NumberOfComponents="3" format="ascii">
          1.25 -0.375 0 1.125 -0.375 0 1.25 -0.5 0 1.25 -0.25 0
          1.125 -0.5 0 1 -0.5 0 1.375 -0.5 0 1.375 -0.375 0
          1.5 -0.5 0 1.125 -0.25 0 1.125 -0.125 0 1 -0.25 0
          1 -0.125 0 1 0 0 1 -0.375 0 1.125 -0.75 0
          1.125 -0.625 0 1 -0.75 0 1.25 -0.75 0 1 -0.625 0
          1 -0.875 0 1.125 -0.875 0 1 -1 0 1.25 -0.625 0
          1.375 -0.625 0 1.625 -0.25 0 1.625 -0.125 0 1.5 -0.25 0
          1.75 -0.25 0 1.5 -0.125 0 1.5 0 0 1.5 -0.375 0
          1.625 -0.375 0 1.75 -0.125 0 1.875 -0.125 0 1.75 0 0
          1.875 0 0 2 0 0 1.625 0 0 1.25 -0.125 0
          1.375 -0.125 0 1.25 0 0 1.375 0 0 1.125 0 0
          1.375 -0.25 0 0.625 -0.25 0 0.625 -0.125 0 0.5 -0.25 0
          0.75 -0.25 0 0.5 -0.125 0 0.5 0 0 0.5 -0.375 0
          0.625 -0.375 0 0.5 -0.5 0 0.75 -0.125 0 0.875 -0.125 0
          0.75 0 0 0.875 0 0 0.625 0 0 0.25 -0.125 0
          0.375 -0.125 0 0.25 0 0 0.25 -0.25 0 0.375 0 0
          0.125 0 0 0.125 -0.125 0 0 0 0 0.375 -0.25 0
          0.375 -0.375 0 0.75 -0.625 0 0.875 -0.625 0 0.75 -0.5 0
          0.75 -0.75 0 0.875 -0.5 0 0.625 -0.5 0 0.625 -0.625 0
          0.875 -0.75 0 0.875 -0.875 0 0.875 -0.25 0 0.875 -0.375 0
          0.75 -0.375 0 1.625 -1.25 0 1.625 -1.125 0 1.5 -1.25 0
          1.75 -1.25 0 1.5 -1.125 0 1.5 -1 0 1.5 -1.375 0
          1.625 -1.375 0 1.5 -1.5 0 1.75 -1.125 0 1.875 -1.125 0
          1.75 -1 0 1.875 -1 0 2 -1 0 1.625 -1 0
          1.25 -1.125 0 1.375 -1.125 0 1.25 -1 0 1.25 -1.25 0
          1.375 -1 0 1.125 -1 0 1.125 -1.125 0 1.375 -1.25 0
          1.375 -1.375 0 1.75 -1.625 0 1.875 -1.625 0 1.75 -1.5 0
          1.75 -1.75 0 1.875 -1.5 0 2 -1.5 0 1.625 -1.5 0
          1.625 -1.625 0 1.875 -1.75 0 1.875 -1.875 0 2 -1.75 0
          2 -1.875 0 2 -2 0 2 -1.625 0 1.875 -1.25 0
          1.875 -1.375 0 2 -1.25 0 2 -1.375 0 2 -1.125 0
          1.75 -1.375 0 1.75 -0.625 0 1.875 -0.625 0 1.75 -0.5 0
          1.75 -0.75 0 1.875 -0.5 0 2 -0.5 0 1.625 -0.5 0
          1.625 -0.625 0 1.875 -0.75 0 1.875 -0.875 0 2 -0.75 0
          2 -0.875 0 2 -0.625 0 1.875 -0.25 0 1.875 -0.375 0
          2 -0.25 0 2 -0.375 0 2 -0.125 0 1.75 -0.375 0
          1.375 -0.75 0 1.375 -0.875 0 1.5 -0.75 0 1.5 -0.875 0
          1.5 -0.625 0 1.25 -0.875 0 1.75 -0.875 0 1.625 -0.875 0
          1.625 -0.75 0 1.625 0.75 0 1.625 0.875 0 1.5 0.75 0
          1.75 0.75 0 1.5 0.875 0 1.5 1 0 1.5 0.625 0
          1.625 0.625 0 1.5 0.5 0 1.75 0.875 0 1.875 0.875 0
          1.75 1 0 1.875 1 0 2 1 0 1.625 1 0
          1.25 0.875 0 1.375 0.875 0 1.25 1 0 1.25 0.75 0
          1.375 1 0 1.125 1 0 1.125 0.875 0 1 1 0
          1.375 0.75 0 1.375 0.625 0 1.75 0.375 0 1.875 0.375 0
          1.75 0.5 0 1.75 0.25 0 1.875 0.5 0 2 0.5 0
          1.625 0.5 0 1.625 0.375 0 1.875 0.25 0 1.875 0.125 0
          2 0.25 0 2 0.125 0 2 0.375 0 1.875 0.75 0
          1.875 0.625 0 2 0.75 0 2 0.625 0 2 0.875 0
          1.75 0.625 0 1.75 1.375 0 1.875 1.375 0 1.75 1.5 0
          1.75 1.25 0 1.875 1.5 0 2 1.5 0 1.625 1.5 0
          1.625 1.375 0 1.5 1.5 0 1.875 1.25 0 1.875 1.125 0
          2 1.25 0 2 1.125 0 2 1.375 0 1.875 1.75 0
          1.875 1.625 0 2 1.75 0 1.75 1.75 0 2 1.625 0
          2 1.875 0 1.875 1.875 0 2 2 0 1.75 1.625 0
          1.625 1.625 0 1.375 1.25 0 1.375 1.125 0 1.5 1.25 0
          1.25 1.25 0 1.5 1.125 0 1.5 1.375 0 1.375 1.375 0
          1.25 1.125 0 1.125 1.125 0 1.75 1.125 0 1.625 1.125 0
          1.625 1.25 0 0.75 0.375 0 0.875 0.375 0 0.75 0.5 0
          0.75 0.25 0 0.875 0.5 0 1 0.5 0 0.625 0.5 0
          0.625 0.375 0 0.5 0.5 0 0.875 0.25 0 0.875 0.125 0
          1 0.25 0 1 0.125 0 1 0.375 0 0.875 0.75 0
          0.875 0.625 0 1 0.75 0 0.75 0.75 0 1 0.625 0
          1 0.875 0 0.875 0.875 0 0.75 0.625 0 0.625 0.625 0
          0.375 0.25 0 0.375 0.125 0 0.5 0.25 0 0.25 0.25 0
          0.5 0.125 0 0.5 0.375 0 0.375 0.375 0 0.25 0.125 0
          0.125 0.125 0 0.75 0.125 0 0.625 0.125 0 0.625 0.25 0
          1.375 0.25 0 1.375 0.125 0 1.5 0.25 0 1.25 0.25 0
          1.5 0.125 0 1.5 0.375 0 1.375 0.375 0 1.25 0.125 0
          1.125 0.125 0 1.75 0.125 0 1.625 0.125 0 1.625 0.25 0
          1.25 0.625 0 1.125 0.625 0 1.25 0.5 0 1.125 0.5 0
          1.375 0.5 0 1.125 0.75 0 1.125 0.25 0 1.125 0.375 0
          1.25 0.375 0 -0.375 -1.25 0 -0.375 -1.125 0 -0.5 -1.25 0
          -0.25 -1.25 0 -0.5 -1.125 0 -0.5 -1 0 -0.5 -1.375 0
          -0.375 -1.375 0 -0.5 -1.5 0 -0.25 -1.125 0 -0.125 -1.125 0
          -0.25 -1 0 -0.125 -1 0 0 -1 0 -0.375 -1 0
          -0.75 -1.125 0 -0.625 -1.125 0 -0.75 -1 0 -0.75 -1.25 0
          -0.625 -1 0 -0.875 -1 0 -0.875 -1.125 0 -1 -1 0
          -0.625 -1.25 0 -0.625 -1.375 0 -0.25 -1.625 0 -0.125 -1.625 0
          -0.25 -1.5 0 -0.25 -1.75 0 -0.125 -1.5 0 0 -1.5 0
          -0.375 -1.5 0 -0.375 -1.625 0 -0.125 -1.75 0 -0.125 -1.875 0
          0 -1.75 0 0 -1.875 0 0 -2 0 0 -1.625 0
          -0.125 -1.25 0 -0.125 -1.375 0 0 -1.25 0 0 -1.375 0
          0 -1.125 0 -0.25 -1.375 0 -0.25 -0.625 0 -0.125 -0.625 0
          -0.25 -0.5 0 -0.25 -0.75 0 -0.125 -0.5 0 0 -0.5 0
          -0.375 -0.5 0 -0.375 -0.625 0 -0.5 -0.5 0 -0.125 -0.75 0
          -0.125 -0.875 0 0 -0.75 0 0 -0.875 0 0 -0.625 0
          -0.125 -0.25 0 -0.125 -0.375 0 0 -0.25 0 -0.25 -0.25 0
          0 -0.375 0 0 -0.125 0 -0.125 -0.125 0 -0.25 -0.375 0
          -0.375 -0.375 0 -0.625 -0.75 0 -0.625 -0.875 0 -0.5 -0.75 0
          -0.75 -0.75 0 -0.5 -0.875 0 -0.5 -0.625 0 -0.625 -0.625 0
          -0.75 -0.875 0 -0.875 -0.875 0 -0.25 -0.875 0 -0.375 -0.875 0
          -0.375 -0.75 0 -1.25 -1.625 0 -1.125 -1.625 0 -1.25 -1.5 0
          -1.25 -1.75 0 -1.125 -1.5 0 -1 -1.5 0 -1.375 -1.5 0
          -1.375 -1.625 0 -1.5 -1.5 0 -1.125 -1.75 0 -1.125 -1.875 0
          -1 -1.75 0 -1 -1.875 0 -1 -2 0 -1 -1.625 0
          -1.125 -1.25 0 -1.125 -1.375 0 -1 -1.25 0 -1.25 -1.25 0
          -1 -1.375 0 -1 -1.125 0 -1.125 -1.125 0 -1.25 -1.375 0
          -1.375 -1.375 0 -1.625 -1.75 0 -1.625 -1.875 0 -1.5 -1.75 0
          -1.75 -1.75 0 -1.5 -1.875 0 -1.5 -2 0 -1.5 -1.625 0
          -1.625 -1.625 0 -1.75 -1.875 0 -1.875 -1.875 0 -1.75 -2 0
          -1.875 -2 0 -2 -2 0 -1.625 -2 0 -1.25 -1.875 0
          -1.375 -1.875 0 -1.25 -2 0 -1.375 -2 0 -1.125 -2 0
          -1.375 -1.75 0 -0.625 -1.75 0 -0.625 -1.875 0 -0.5 -1.75 0
          -0.75 -1.75 0 -0.5 -1.875 0 -0.5 -2 0 -0.5 -1.625 0
          -0.625 -1.625 0 -0.75 -1.875 0 -0.875 -1.875 0 -0.75 -2 0
          -0.875 -2 0 -0.625 -2 0 -0.25 -1.875 0 -0.375 -1.875 0
          -0.25 -2 0 -0.375 -2 0 -0.125 -2 0 -0.375 -1.75 0
          -0.75 -1.375 0 -0.875 -1.375 0 -0.75 -1.5 0 -0.875 -1.5 0
          -0.625 -1.5 0 -0.875 -1.25 0 -0.875 -1.75 0 -0.875 -1.625 0
          -0.75 -1.625 0 0.75 -1.625 0 0.875 -1.625 0 0.75 -1.5 0
          0.75 -1.75 0 0.875 -1.5 0 1 -1.5 0 0.625 -1.5 0
          0.625 -1.625 0 0.5 -1.5 0 0.875 -1.75 0 0.875 -1.875 0
          1 -1.75 0 1 -1.875 0 1 -2 0 1 -1.625 0
          0.875 -1.25 0 0.875 -1.375 0 1 -1.25 0 0.75 -1.25 0
          1 -1.375 0 1 -1.125 0 0.875 -1.125 0 0.75 -1.375 0
          0.625 -1.375 0 0.375 -1.75 0 0.375 -1.875 0 0.5 -1.75 0
          0.25 -1.75 0 0.5 -1.875 0 0.5 -2 0 0.5 -1.625 0
          0.375 -1.625 0 0.25 -1.875 0 0.125 -1.875 0 0.25 -2 0
          0.125 -2 0 0.375 -2 0 0.75 -1.875 0 0.625 -1.875 0
          0.75 -2 0 0.625 -2 0 0.875 -2 0 0.625 -1.75 0
          1.375 -1.75 0 1.375 -1.875 0 1.5 -1.75 0 1.25 -1.75 0
          1.5 -1.875 0 1.5 -2 0 1.5 -1.625 0 1.375 -1.625 0
          1.25 -1.875 0 1.125 -1.875 0 1.25 -2 0 1.125 -2 0
          1.375 -2 0 1.75 -1.875 0 1.625 -1.875 0 1.75 -2 0
          1.625 -2 0 1.875 -2 0 1.625 -1.75 0 1.25 -1.375 0
          1.125 -1.375 0 1.25 -1.5 0 1.125 -1.5 0 1.375 -1.5 0
          1.125 -1.25 0 1.125 -1.75 0 1.125 -1.625 0 1.25 -1.625 0
          0.375 -0.75 0 0.375 -0.875 0 0.5 -0.75 0 0.25 -0.75 0
          0.5 -0.875 0 0.5 -1 0 0.5 -0.625 0 0.375 -0.625 0
          0.25 -0.875 0 0.125 -0.875 0 0.25 -1 0 0.125 -1 0
          0.375 -1 0 0.75 -0.875 0 0.625 -0.875 0 0.75 -1 0
          0.625 -1 0 0.875 -1 0 0.625 -0.75 0 0.25 -0.375 0
          0.125 -0.375 0 0.25 -0.5 0 0.125 -0.5 0 0.375 -0.5 0
          0.125 -0.25 0 0.125 -0.75 0 0.125 -0.625 0 0.25 -0.625 0
          0.25 -1.375 0 0.125 -1.375 0 0.25 -1.5 0 0.25 -1.25 0
          0.125 -1.5 0 0.375 -1.5 0 0.375 -1.375 0 0.125 -1.25 0
          0.125 -1.125 0 0.125 -1.75 0 0.125 -1.625 0 0.25 -1.625 0
          0.625 -1.25 0 0.625 -1.125 0 0.5 -1.25 0 0.5 -1.125 0
          0.5 -1.375 0 0.75 -1.125 0 0.25 -1.125 0 0.375 -1.125 0
          0.375 -1.25 0 -1.25 0.375 0 -1.125 0.375 0 -1.25 0.5 0
          -1.25 0.25 0 -1.125 0.5 0 -1 0.5 0 -1.375 0.5 0
          -1.375 0.375 0 -1.5 0.5 0 -1.125 0.25 0 -1.125 0.125 0
          -1 0.25 0 -1 0.125 0 -1 0 0 -1 0.375 0
          -1.125 0.75 0 -1.125 0.625 0 -1 0.75 0 -1.25 0.75 0
          -1 0.625 0 -1 0.875 0 -1.125 0.875 0 -1 1 0
          -1.25 0.625 0 -1.375 0.625 0 -1.625 0.25 0 -1.625 0.125 0
          -1.5 0.25 0 -1.75 0.25 0 -1.5 0.125 0 -1.5 0 0
          -1.5 0.375 0 -1.625 0.375 0 -1.75 0.125 0 -1.875 0.125 0
          -1.75 0 0 -1.875 0 0 -2 0 0 -1.625 0 0
          -1.25 0.125 0 -1.375 0.125 0 -1.25 0 0 -1.375 0 0
          -1.125 0 0 -1.375 0.25 0 -0.625 0.25 0 -0.625 0.125 0
          -0.5 0.25 0 -0.75 0.25 0 -0.5 0.125 0 -0.5 0 0
          -0.5 0.375 0 -0.625 0.375 0 -0.5 0.5 0 -0.75 0.125 0
          -0.875 0.125 0 -0.75 0 0 -0.875 0 0 -0.625 0 0
          -0.25 0.125 0 -0.375 0.125 0 -0.25 0 0 -0.25 0.25 0
          -0.375 0 0 -0.125 0 0 -0.125 0.125 0 -0.375 0.25 0
          -0.375 0.375 0 -0.75 0.625 0 -0.875 0.625 0 -0.75 0.5 0
          -0.75 0.75 0 -0.875 0.5 0 -0.625 0.5 0 -0.625 0.625 0
          -0.875 0.75 0 -0.875 0.875 0 -0.875 0.25 0 -0.875 0.375 0
          -0.75 0.375 0 -1.625 1.25 0 -1.625 1.125 0 -1.5 1.25 0
          -1.75 1.25 0 -1.5 1.125 0 -1.5 1 0 -1.5 1.375 0
          -1.625 1.375 0 -1.5 1.5 0 -1.75 1.125 0 -1.875 1.125 0
          -1.75 1 0 -1.875 1 0 -2 1 0 -1.625 1 0
          -1.25 1.125 0 -1.375 1.125 0 -1.25 1 0 -1.25 1.25 0
          -1.375 1 0 -1.125 1 0 -1.125 1.125 0 -1.375 1.25 0
          -1.375 1.375 0 -1.75 1.625 0 -1.875 1.625 0 -1.75 1.5 0
          -1.75 1.75 0 -1.875 1.5 0 -2 1.5 0 -1.625 1.5 0
          -1.625 1.625 0 -1.875 1.75 0 -1.875 1.875 0 -2 1.75 0
          -2 1.875 0 -2 2 0 -2 1.625 0 -1.875 1.25 0
          -1.875 1.375 0 -2 1.25 0 -2 1.375 0 -2 1.125 0
          -1.75 1.375 0 -1.75 0.625 0 -1.875 0.625 0 -1.75 0.5 0
          -1.75 0.75 0 -1.875 0.5 0 -2 0.5 0 -1.625 0.5 0
          -1.625 0.625 0 -1.875 0.75 0 -1.875 0.875 0 -2 0.75 0
          -2 0.875 0 -2 0.625 0 -1.875 0.25 0 -1.875 0.375 0
          -2 0.25 0 -2 0.375 0 -2 0.125 0 -1.75 0.375 0
          -1.375 0.75 0 -1.375 0.875 0 -1.5 0.75 0 -1.5 0.875 0
          -1.5 0.625 0 -1.25 0.875 0 -1.75 0.875 0 -1.625 0.875 0
          -1.625 0.75 0 -1.625 -0.75 0 -1.625 -0.875 0 -1.5 -0.75 0
          -1.75 -0.75 0 -1.5 -0.875 0 -1.5 -1 0 -1.5 -0.625 0
          -1.625 -0.625 0 -1.5 -0.5 0 -1.75 -0.875 0 -1.875 -0.875 0
          -1.75 -1 0 -1.875 -1 0 -2 -1 0 -1.625 -1 0
          -1.25 -0.875 0 -1.375 -0.875 0 -1.25 -1 0 -1.25 -0.75 0
          -1.375 -1 0 -1.125 -1 0 -1.125 -0.875 0 -1.375 -0.75 0
          -1.375 -0.625 0 -1.75 -0.375 0 -1.875 -0.375 0 -1.75 -0.5 0
          -1.75 -0.25 0 -1.875 -0.5 0 -2 -0.5 0 -1.625 -0.5 0
          -1.625 -0.375 0 -1.875 -0.25 0 -1.875 -0.125 0 -2 -0.25 0
          -2 -0.125 0 -2 -0.375 0 -1.875 -0.75 0 -1.875 -0.625 0
          -2 -0.75 0 -2 -0.625 0 -2 -0.875 0 -1.75 -0.625 0
          -1.75 -1.375 0 -1.875 -1.375 0 -1.75 -1.5 0 -1.75 -1.25 0
          -1.875 -1.5 0 -2 -1.5 0 -1.625 -1.5 0 -1.625 -1.375 0
          -1.875 -1.25 0 -1.875 -1.125 0 -2 -1.25 0 -2 -1.125 0
          -2 -1.375 0 -1.875 -1.75 0 -1.875 -1.625 0 -2 -1.75 0
          -2 -1.625 0 -2 -1.875 0 -1.75 -1.625 0 -1.375 -1.25 0
          -1.375 -1.125 0 -1.5 -1.25 0 -1.5 -1.125 0 -1.5 -1.375 0
          -1.25 -1.125 0 -1.75 -1.125 0 -1.625 -1.125 0 -1.625 -1.25 0
          -0.75 -0.375 0 -0.875 -0.375 0 -0.75 -0.5 0 -0.75 -0.25 0
          -0.875 -0.5 0 -1 -0.5 0 -0.625 -0.5 0 -0.625 -0.375 0
          -0.875 -0.25 0 -0.875 -0.125 0 -1 -0.25 0 -1 -0.125 0
          -1 -0.375 0 -0.875 -0.75 0 -0.875 -0.625 0 -1 -0.75 0
          -1 -0.625 0 -1 -0.875 0 -0.75 -0.625 0 -0.375 -0.25 0
          -0.375 -0.125 0 -0.5 -0.25 0 -0.5 -0.125 0 -0.5 -0.375 0
          -0.25 -0.125 0 -0.75 -0.125 0 -0.625 -0.125 0 -0.625 -0.25 0
          -1.375 -0.25 0 -1.375 -0.125 0 -1.5 -0.25 0 -1.25 -0.25 0
          -1.5 -0.125 0 -1.5 -0.375 0 -1.375 -0.375 0 -1.25 -0.125 0
          -1.125 -0.125 0 -1.75 -0.125 0 -1.625 -0.125 0 -1.625 -0.25 0
          -1.25 -0.625 0 -1.125 -0.625 0 -1.25 -0.5 0 -1.125 -0.5 0
          -1.375 -0.5 0 -1.125 -0.75 0 -1.125 -0.25 0 -1.125 -0.375 0
          -1.25 -0.375 0 0.375 1.25 0 0.375 1.125 0 0.5 1.25 0
          0.25 1.25 0 0.5 1.125 0 0.5 1 0 0.5 1.375 0
          0.375 1.375 0 0.5 1.5 0 0.25 1.125 0 0.125 1.125 0
          0.25 1 0 0.125 1 0 0 1 0 0.375 1 0
          0.75 1.125 0 0.625 1.125 0 0.75 1 0 0.75 1.25 0
          0.625 1 0 0.875 1 0 0.875 1.125 0 0.625 1.25 0
          0.625 1.375 0 0.25 1.625 0 0.125 1.625 0 0.25 1.5 0
          0.25 1.75 0 0.125 1.5 0 0 1.5 0 0.375 1.5 0
          0.375 1.625 0 0.125 1.75 0 0.125 1.875 0 0 1.75 0
          0 1.875 0 0 2 0 0 1.625 0 0.125 1.25 0
          0.125 1.375 0 0 1.25 0 0 1.375 0 0 1.125 0
          0.25 1.375 0 0.25 0.625 0 0.125 0.625 0 0.25 0.5 0
          0.25 0.75 0 0.125 0.5 0 0 0.5 0 0.375 0.5 0
          0.375 0.625 0 0.125 0.75 0 0.125 0.875 0 0 0.75 0
          0 0.875 0 0 0.625 0 0.125 0.25 0 0.125 0.375 0
          0 0.25 0 0 0.375 0 0 0.125 0 0.25 0.375 0
          0.625 0.75 0 0.625 0.875 0 0.5 0.75 0 0.5 0.875 0
          0.5 0.625 0 0.75 0.875 0 0.25 0.875 0 0.375 0.875 0
          0.375 0.75 0 1.25 1.625 0 1.125 1.625 0 1.25 1.5 0
          1.25 1.75 0 1.125 1.5 0 1 1.5 0 1.375 1.5 0
          1.375 1.625 0 1.125 1.75 0 1.125 1.875 0 1 1.75 0
          1 1.875 0 1 2 0 1 1.625 0 1.125 1.25 0
          1.125 1.375 0 1 1.25 0 1 1.375 0 1 1.125 0
          1.25 1.375 0 1.625 1.75 0 1.625 1.875 0 1.5 1.75 0
          1.5 1.875 0 1.5 2 0 1.5 1.625 0 1.75 1.875 0
          1.75 2 0 1.875 2 0 1.625 2 0 1.25 1.875 0
          1.375 1.875 0 1.25 2 0 1.375 2 0 1.125 2 0
          1.375 1.75 0 0.625 1.75 0 0.625 1.875 0 0.5 1.75 0
          0.75 1.75 0 0.5 1.875 0 0.5 2 0 0.5 1.625 0
          0.625 1.625 0 0.75 1.875 0 0.875 1.875 0 0.75 2 0
          0.875 2 0 0.625 2 0 0.25 1.875 0 0.375 1.875 0
          0.25 2 0 0.375 2 0 0.125 2 0 0.375 1.75 0
          0.75 1.375 0 0.875 1.375 0 0.75 1.5 0 0.875 1.5 0
          0.625 1.5 0 0.875 1.25 0 0.875 1.75 0 0.875 1.625 0
          0.75 1.625 0 -0.75 1.625 0 -0.875 1.625 0 -0.75 1.5 0
          -0.75 1.75 0 -0.875 1.5 0 -1 1.5 0 -0.625 1.5 0
          -0.625 1.625 0 -0.5 1.5 0 -0.875 1.75 0 -0.875 1.875 0
          -1 1.75 0 -1 1.875 0 -1 2 0 -1 1.625 0
          -0.875 1.25 0 -0.875 1.375 0 -1 1.25 0 -0.75 1.25 0
          -1 1.375 0 -1 1.125 0 -0.875 1.125 0 -0.75 1.375 0
          -0.625 1.375 0 -0.375 1.75 0 -0.375 1.875 0 -0.5 1.75 0
          -0.25 1.75 0 -0.5 1.875 0 -0.5 2 0 -0.5 1.625 0
          -0.375 1.625 0 -0.25 1.875 0 -0.125 1.875 0 -0.25 2 0
          -0.125 2 0 -0.375 2 0 -0.75 1.875 0 -0.625 1.875 0
          -0.75 2 0 -0.625 2 0 -0.875 2 0 -0.625 1.75 0
          -1.375 1.75 0 -1.375 1.875 0 -1.5 1.75 0 -1.25 1.75 0
          -1.5 1.875 0 -1.5 2 0 -1.5 1.625 0 -1.375 1.625 0
          -1.25 1.875 0 -1.125 1.875 0 -1.25 2 0 -1.125 2 0
          -1.375 2 0 -1.75 1.875 0 -1.625 1.875 0 -1.75 2 0
          -1.625 2 0 -1.875 2 0 -1.625 1.75 0 -1.25 1.375 0
          -1.125 1.375 0 -1.25 1.5 0 -1.125 1.5 0 -1.375 1.5 0
          -1.125 1.25 0 -1.125 1.75 0 -1.125 1.625 0 -1.25 1.625 0
          -0.375 0.75 0 -0.375 0.875 0 -0.5 0.75 0 -0.25 0.75 0
          -0.5 0.875 0 -0.5 1 0 -0.5 0.625 0 -0.375 0.625 0
          -0.25 0.875 0 -0.125 0.875 0 -0.25 1 0 -0.125 1 0
          -0.375 1 0 -0.75 0.875 0 -0.625 0.875 0 -0.75 1 0
          -0.625 1 0 -0.875 1 0 -0.625 0.75 0 -0.25 0.375 0
          -0.125 0.375 0 -0.25 0.5 0 -0.125 0.5 0 -0.375 0.5 0
          -0.125 0.25 0 -0.125 0.75 0 -0.125 0.625 0 -0.25 0.625 0
          -0.25 1.375 0 -0.125 1.375 0 -0.25 1.5 0 -0.25 1.25 0
          -0.125 1.5 0 -0.375 1.5 0 -0.375 1.375 0 -0.125 1.25 0
          -0.125 1.125 0 -0.125 1.75 0 -0.125 1.625 0 -0.25 1.625 0
          -0.625 1.25 0 -0.625 1.125 0 -0.5 1.25 0 -0.5 1.125 0
          -0.5 1.375 0 -0.75 1.125 0 -0.25 1.125 0 -0.375 1.125 0
          -0.375 1.25 0
        </DataArray>
      </Points>
      <Cells>
        <DataArray type="Int32" Name="connectivity" NumberOfComponents="1" format="ascii">
          0 1 2 0 3 1 4 1 5 4 2 1
          6 7 2 6 8 7 0 7 3 0 2 7
          9 10 11 9 3 10 12 10 13 12 11 10
          14 1 11 14 5 1 9 1 3 9 11 1
          15 16 17 15 18 16 19 16 5 19 17 16
          20 21 17 20 22 21 15 21 18 15 17 21
          23 24 2 23 18 24 6 24 8 6 2 24
          4 16 2 4 5 16 23 16 18 23 2 16
          25 26 27 25 28 26 29 26 30 29 27 26
          31 32 27 31 8 32 25 32 28 25 27 32
          33 34 35 33 28 34 36 34 37 36 35 34
          38 26 35 38 30 26 33 26 28 33 35 26
          39 40 41 39 3 40 42 40 30 42 41 40
          43 10 41 43 13 10 39 10 3 39 41 10
          44 7 27 44 3 7 31 7 8 31 27 7
          29 40 27 29 30 40 44 40 3 44 27 40
          45 46 47 45 48 46 49 46 50 49 47 46
          51 52 47 51 53 52 45 52 48 45 47 52
          54 55 56 54 48 55 57 55 13 57 56 55
          58 46 56 58 50 46 54 46 48 54 56 46
          59 60 61 59 62 60 63 60 50 63 61 60
          64 65 61 64 66 65 59 65 62 59 61 65
          67 68 47 67 62 68 51 68 53 51 47 68
          49 60 47 49 50 60 67 60 62 67 47 60
          69 70 71 69 72 70 73 70 5 73 71 70
          74 75 71 74 53 75 69 75 72 69 71 75
          76 77 17 76 72 77 20 77 22 20 17 77
          19 70 17 19 5 70 76 70 72 76 17 70
          78 79 11 78 48 79 14 79 5 14 11 79
          12 55 11 12 13 55 78 55 48 78 11 55
          80 52 71 80 48 52 74 52 53 74 71 52
          73 79 71 73 5 79 80 79 48 80 71 79
          81 82 83 81 84 82 85 82 86 85 83 82
          87 88 83 87 89 88 81 88 84 81 83 88
          90 91 92 90 84 91 93 91 94 93 92 91
          95 82 92 95 86 82 90 82 84 90 92 82
          96 97 98 96 99 97 100 97 86 100 98 97
          101 102 98 101 22 102 96 102 99 96 98 102
          103 104 83 103 99 104 87 104 89 87 83 104
          85 97 83 85 86 97 103 97 99 103 83 97
          105 106 107 105 108 106 109 106 110 109 107 106
          111 112 107 111 89 112 105 112 108 105 107 112