<?xml version="1.0"?>
<VTKFile type="UnstructuredGrid" version="0.1" byte_order="LittleEndian">
  <UnstructuredGrid>
    <Piece NumberOfCells="8192" NumberOfPoints="4225">
      <PointData Scalars="Uh">
        <DataArray type="Float32" Name="Uh" NumberOfComponents="1" format="ascii">
          -0.444365 -0.519904 -0.469126 -0.420904 -0.547269 -0.62411 -0.390982 -0.370125 -0.312837 -0.492539 -0.463873 -0.56157
          -0.5303 -0.500331 -0.59284 -0.601999 -0.573332 -0.68665 -0.516047 -0.655379 -0.717919 -0.629364 -0.749189 -0.491285
          -0.410538 -0.211198 -0.198151 -0.280235 -0.14086 -0.264584 -0.250234 -0.295885 -0.222945 -0.131717 -0.0665828 -0.125177
          -0.0626454 0.00118865 -0.187707 -0.397444 -0.332317 -0.375286 -0.312761 -0.437809 -0.351871 -0.773861 -0.729575 -0.842888
          -0.703532 -0.795998 -0.750409 -0.889778 -0.816846 -0.936668 -0.663151 -0.598028 -0.625372 -0.562852 -0.687891 -0.928841
          -0.863722 -0.875442 -0.983542 -0.812926 -0.937958 -0.995262 -1.00047 -0.914517 -0.964011 -0.81947 -0.738727 -0.781692
          -0.85855 -0.703552 -0.859831 -0.901514 -0.773901 -0.807775 -0.633202 -0.667075 -0.741311 -0.305169 -0.292121 -0.405441
          -0.203595 -0.38979 -0.37544 -0.421092 -0.316916 -0.436744 -0.194451 -0.0980814 -0.18791 -0.094143 0.000925466 -0.281675
          -0.585126 -0.48876 -0.562967 -0.608586 -0.469204 -0.656729 -0.682793 -0.508315 -0.52657 -0.225821 -0.113835 -0.219279
          -0.233664 -0.109896 0.000789058 -0.328662 -0.339108 -0.117773 -0.120411 0.000719912 0.00068524 -0.000650418 0.000754693 -0.102019
          -0.104656 0.000857642 0.000823704 0.000892033 -0.210136 -0.163083 -0.0823308 -0.156542 -0.170924 -0.078393 0.00105852 -0.23469
          -0.245135 -0.0862677 -0.0889039 0.000992425 0.000959526 0.00102613 -0.070519 -0.0731545 0.00112386 0.00109189 0.00115698 -0.1474
          -0.430093 -0.448347 -0.342837 -0.358488 -0.327186 -0.538205 -0.178767 -0.269929 -0.258183 -0.11723 -0.104181 -0.155029
          -0.0781286 -0.139377 -0.125026 -0.170679 -0.128977 -0.18633 -0.0689846 -0.035087 -0.0624431 -0.0311484 0.00144956 -0.093736
          -0.209761 -0.175872 -0.187601 -0.233222 -0.156315 -0.218885 -0.24495 -0.250169 -0.195427 -0.213682 -0.100352 -0.0508357
          -0.0938111 -0.108193 -0.0468981 0.0013179 -0.140723 -0.151167 -0.0547718 -0.0574071 0.00125321 0.00122165 0.00128626 -0.0390238
          -0.0416595 0.00138319 0.00135121 0.001417 -0.0846685 -0.0376123 -0.0193329 -0.031069 -0.0454558 -0.0153923 0.00158778 -0.0467435
          -0.0571909 -0.0624161 -0.0232714 -0.0259086 0.00151757 0.00148413 0.0015532 -0.00751049 -0.0101504 0.00166074 -0.0153794 0.00162472
          0.00169936 -0.0035691 0.00173845 -0.0219231 -0.0349948 -0.117201 -0.135456 -0.0924211 -0.140678 -0.108073 -0.0767676 -0.0976437
          -0.162838 -0.191519 -0.0532993 -0.0819893 -0.0702407 -0.50683 -0.457328 -0.469051 -0.54591 -0.422152 -0.37395 -0.51595
          -0.557634 -0.562848 -0.492502 -0.526376 -0.43649 -0.46776 -0.40522 -0.351801 -0.385675 -0.311409 -0.390891 -0.342679
          -0.280138 -0.316626 -0.42867 -0.472965 -0.711335 -0.760829 -0.655327 -0.766041 -0.702217 -0.608436 -0.66054 -0.81944
          -0.879352 -0.584991 -0.644906 -0.601921 -0.27365 -0.291904 -0.217633 -0.328366 -0.233283 -0.201981 -0.254095 -0.350524
          -0.410445 -0.116034 -0.175961 -0.164215 -0.256683 -0.300984 -0.281444 -0.328349 -0.234539 -0.273617 -0.383079 -0.354412
          -0.303604 -1.93029 -1.85476 -2.03055 -1.82872 -1.95242 -1.87559 -2.10869 -2.00451 -2.18682 -1.7571 -1.66074
          -1.68808 -1.59432 -1.49926 -1.78183 -2.14774 -2.05138 -2.0631 -2.23369 -1.96934 -2.15686 -2.2454 -2.25061
          -2.13342 -2.21416 -2.03838 -1.9264 -1.96936 -2.10871 -1.85998 -1.7493 -2.07874 -2.15167 -1.99282 -2.05793
          -1.87433 -1.93684 -2.00065 -1.81182 -1.72715 -1.79227 -1.62428 -1.68679 -1.56177 -1.89774 -1.47581 -1.39507
          -1.40679 -1.54613 -1.32865 -1.24922 -1.48492 -1.55785 -1.56306 -1.46149 -1.5266 -1.37424 -1.43675 -1.31173
          -1.19582 -1.26093 -1.12419 -1.26614 -1.1867 -1.06168 -1.1294 -1.33516 -1.4107 -1.80527 -1.886 -1.71802
          -1.89121 -1.79615 -1.63989 -1.72323 -1.97585 -2.06701 -1.61645 -1.70761 -1.63338 -2.94465 -2.83267 -2.84439
          -3.04622 -2.73501 -2.62433 -2.95376 -3.05793 -3.06314 -2.93033 -3.02669 -2.81184 -2.90559 -3.00065 -2.71808
          -2.53969 -2.63605 -2.43682 -2.64125 -2.53057 -2.34306 -2.44203 -2.74152 -2.84829 -3.39908 -3.51107 -3.28059
          -3.51627 -3.38997 -3.50065 -3.17122 -3.2858 -3.63216 -3.75456 -3.75065 -3.87565 -3.99935 -3.62565 -3.14778
          -3.27018 -3.25065 -3.37565 -3.12565 -3.16471 -2.46157 -2.54231 -2.34308 -2.57876 -2.42122 -2.50065 -2.26495
          -2.37954 -2.66341 -2.7858 -2.75065 -2.87565 -2.62565 -2.17903 -2.30142 -2.25065 -2.37565 -2.12565 -2.2272
          -2.31963 -2.4264 -2.40688 -2.51625 -2.2975 -2.33655 -2.69595 -2.6048 -2.49152 -1.13211 -1.02013 -1.09433
          -1.17119 -0.984951 -0.874269 -1.20371 -1.24539 -1.31309 -1.0553 -1.08917 -0.936809 -0.968079 -1.00065 -0.905539
          -0.914601 -0.948474 -0.811729 -1.01617 -0.842999 -0.780459 -0.879426 -1.05395 -1.16073 -1.52406 -1.57355 -1.40557
          -1.64125 -1.45246 -1.50065 -1.35868 -1.47327 -1.69465 -1.81704 -1.75065 -1.87565 -1.62565 -1.21027 -1.33267
          -1.25065 -1.37565 -1.12565 -1.28968 -0.586539 -0.604793 -0.468047 -0.70373 -0.483698 -0.500651 -0.452395 -0.566983
          -0.725889 -0.848285 -0.750651 -0.875651 -0.625651 -0.241507 -0.363903 -0.25065 -0.375651 -0.12565 -0.352156 -0.632047
          -0.738824 -0.656808 -0.76619 -0.547427 -0.711459 -0.82092 -0.792253 -0.678968 -1.1177 -1.16719 -1.03045 -1.20365
          -1.07734 -1.12553 -0.983558 -1.0669 -1.25704 -1.3482 -1.31305 -1.4068 -1.21929 -0.89763 -0.988786 -0.938011
          -1.03177 -0.844251 -0.945801 -1.03824 -1.11378 -1.09424 -1.17238 -1.01611 -1.05517 -1.28959 -1.22969 -1.14764
          -1.47585 -1.58262 -1.53185 -1.42115 -1.64123 -1.42247 -1.37037 -1.52402 -1.46411 -1.75844 -1.69853 -1.58525
          -1.11774 -1.07345 -1.21801 -1.17112 -1.2649 -0.97579 -1.36645 -1.27008 -1.32088 1.32019 1.27079 1.21989
          1.4218 1.17309 1.12499 1.26669 1.37089 1.31348 1.3685 1.46491 1.3126 1.40641 1.50153 1.21879
          0.9777 1.07409 0.937404 1.0167 1.03119 0.843614 0.88001 0.749827 1.11699 1.16119 1.58688 1.69889
          1.53099 1.64147 1.6404 1.75111 1.42158 1.47358 1.75738 1.81716 1.87588 1.93827 1.99935 1.8135
          1.52341 1.58321 1.62633 1.68872 1.56393 1.4777 1.15007 1.23088 1.09416 1.20469 1.17236 1.25186
          1.01596 1.06797 0.937768 1.28939 1.34921 1.37671 1.43912 1.31429 1.05536 1.11514 1.12707 0.984941
          1.18944 1.06471 0.996845 1.00238 1.04085 0.965251 0.945392 0.989595 1.03268 0.859402 1.07949 0.985878
          0.902486 0.899704 0.808516 1.25929 1.16809 1.11738 0.680496 0.792489 0.655811 0.703881 0.765202 0.875893
          0.546421 0.567204 0.437032 0.819776 0.848363 0.938272 0.969461 0.99935 0.907084 0.710625 0.739214 0.813512
          0.609038 0.844704 0.782321 0.683334 0.633726 0.526938 0.350998 0.363974 0.469492 0.233804 0.485071 0.49935
          0.453913 0.339321 0.242878 0.120481 0.24935 0.12435 0.37435 0.727266 0.604868 0.74935 0.62435 0.87435
          0.585386 1.28857 1.33276 1.40707 1.17137 1.45386 1.49935 1.36027 1.24567 1.21166 1.08926 1.24935
          1.12435 1.37435 1.69606 1.57366 1.74935 1.62435 1.87435 1.52297 1.05569 0.948895 1.09338 0.983988
          1.20278 0.913803 1.05417 1.02038 1.13368 2.49347 2.60552 2.40648 2.57918 2.51601 2.62667 2.29702
          2.38013 2.18755 2.6951 2.78606 2.81362 2.90717 2.99939 2.72004 2.33719 2.42805 2.44066 2.23492
          2.53352 2.34731 2.24691 2.25521 2.3221 2.21516 2.22623 2.30159 2.34475 2.10901 2.4227 2.49935
          2.26679 2.15217 2.18048 2.05808 2.24935 2.12435 2.37435 2.66492 2.54251 2.74936 2.62435 2.87436
          2.46068 3.16894 3.26948 3.29317 3.04696 3.39585 3.50558 3.25328 3.05912 3.18935 3.14984 3.02701
          3.24971 3.12443 3.37495 3.77356 3.57919 3.84761 3.69671 3.65418 4.04181 3.96346 4.23448 3.50676
          3.43787 2.7456 2.63169 2.84706 2.70373 2.73385 3.00647 2.94497 2.5465 2.45777 2.92954 2.83324
          2.94647 1.63368 1.70893 1.72108 1.54751 1.79886 1.87544 1.6433 1.55939 1.56528 1.619 1.52776
          1.68789 1.59406 1.78172 1.97786 1.88779 2.06191 1.89232 1.9691 2.15477 2.06493 1.80653 1.72649
          1.33789 1.26241 1.40684 1.26749 1.32872 1.48507 1.41197 1.19621 1.13131 1.46145 1.39643 1.47857
          1.89977 1.79294 1.96866 1.82958 1.85923 2.0781 2.00532 1.72665 1.66166 1.9918 1.92682 2.04013
          2.13325 2.05261 2.03285 1.95485 2.11087 2.15039 1.75938 1.85581 1.92992 0.306264 0.355802 0.28157
          0.329658 0.328506 0.376747 0.234636 0.255427 0.187705 0.383101 0.4117 0.43915 0.470352 0.500252 0.40795
          0.273913 0.30251 0.314344 0.234783 0.345546 0.283147 0.246618 0.251954 0.259477 0.215146 0.164141 0.177124
          0.220176 0.109408 0.235762 0.250046 0.204592 0.152459 0.118487 0.058551 0.124962 0.0624239 0.187503 0.35305
          0.293102 0.375142 0.312592 0.437695 0.273614 0.602128 0.646331 0.658192 0.547363 0.705001 0.750515 0.611391
          0.559224 0.564607 0.58767 0.527707 0.625377 0.562812 0.687944 0.822326 0.762354 0.875671 0.767648 0.813089
          0.938283 0.881006 0.711649 0.662252 0.43163 0.387279 0.469346 0.392606 0.422392 0.51631 0.474692 0.352175
          0.318374 0.492604 0.458801 0.509656 0.0707006 0.0836807 0.0955014 0.0472022 0.111086 0.125369 0.0799203 0.0590222
          0.0643403 0.0562786 0.0275779 0.0627529 0.0314494 0.0940588 0.165907 0.137191 0.188 0.142513 0.156682 0.219324
          0.193329 0.117704 0.099519 0.0251848 0.0121008 0.0316568 0.0174131 0.0159703 0.0473462 0.0369712 0.00823421 0.00566891
          0.0237087 0.0211405 0.0407303 0.0873811 0.0430627 0.0938567 0.0796054 0.0469355 0.14078 0.130401 0.0391919 0.036622
          0.0546797 0.0521091 0.102934 0.195658 0.177472 0.157837 0.142254 0.173423 0.212692 0.0718291 0.105738 0.117419
          0.257581 0.27056 0.344847 0.171615 0.36043 0.374711 0.329266 0.245901 0.313683 0.180691 0.0895232 0.187165
          0.0933942 0.280937 0.540177 0.449001 0.562265 0.516789 0.468487 0.656045 0.630055 0.429516 0.411332 0.149591
          0.0740387 0.156066 0.141816 0.0779109 0.234223 0.223844 0.0701678 0.0675974 0.0856531 0.0830835 0.165142 0.211787
          0.105003 0.218259 0.204013 0.108873 0.327645 0.31727 0.101134 0.0985655 0.116612 0.114043 0.227332 0.507455
          0.489272 0.407173 0.391593 0.422753 0.586953 0.19624 0.292614 0.304292 0.743696 0.668118 0.781401 0.704692
          0.703221 0.626346 0.859582 0.817977 0.633018 0.599217 0.563949 0.532752 0.595149 0.77342 0.739622 0.688738
          0.657544 0.719934 0.821702 0.91454 0.865125 0.845446 0.798636 0.892261 0.931621 0.665684 0.730855 0.773767
          0.351569 0.333382 0.282514 0.421925 0.266931 0.298099 0.371055 0.399835 0.464989 0.134039 0.199182 0.210863
          0.493399 0.574168 0.468709 0.546876 0.390544 0.601462 0.492286 0.520883 0.446618 0.445007 0.520537 0.469713
          0.421603 0.547847 0.624679 0.39158 0.370778 0.313446 0.493228 0.464619 0.56225 0.531038 0.501129 0.593463
          0.602471 0.573856 0.687114 0.516528 0.655895 0.718333 0.629786 0.749554 0.491818 0.411081 0.211935 0.198946
          0.280957 0.141611 0.265365 0.251075 0.29655 0.223623 0.132528 0.0674111 0.126048 0.0635354 -0.000279018 0.188562
          0.398202 0.333085 0.376102 0.313589 0.438616 0.352581 0.774519 0.730291 0.843539 0.704197 0.796708 0.751181
          0.890372 0.817447 0.937206 0.663874 0.598758 0.626155 0.563643 0.688669 0.92954 0.864426 0.876203 0.984178
          0.813693 0.938714 0.995953 1.00122 0.915161 0.964596 0.819971 0.739235 0.782245 0.858999 0.704113 0.860377
          0.902007 0.774358 0.808181 0.633874 0.66769 0.741919 0.305471 0.292474 0.405735 0.203905 0.390135 0.375836
          0.421337 0.317167 0.436938 0.194813 0.0984543 0.188326 0.0945707 -0.00048628 0.282081 0.585456 0.489097 0.563346
          0.608867 0.469592 0.657101 0.683116 0.508603 0.526808 0.225975 0.113993 0.219485 0.233766 0.110108 -0.000571276
          0.328863 0.339258 0.117879 0.120463 -0.000611417 -0.0006312 0.000650857 -0.000591517 0.102338 0.104921 -0.000529786 -0.000550817
          -0.000508433 0.210393 0.163662 0.082925 0.157178 0.171448 0.0790447 -0.000390593 0.235312 0.245701 0.0868059 0.089386
          -0.0004401 -0.000463698 -0.000415956 0.0712876 0.0738637 -0.000337113 -0.000364558 -0.00030886 0.148093 0.430583 0.448785 0.343338
          0.358936 0.327741 0.538635 0.179236 0.270388 0.258695 0.118484 0.105509 0.156268 0.079399 0.14069 0.126415
          0.171848 0.130159 0.187429 0.070329 0.0364506 0.0638631 0.0325885 1.27265e-05 0.0951395 0.211054 0.177173 0.188971
          0.23444 0.157693 0.22025 0.246236 0.25153 0.196655 0.214837 0.101415 0.0519178 0.0949414 0.10919 0.0480482
          -0.00014639 0.141836 0.152213 0.0557887 0.0583595 -0.000215663 -0.000248219 -0.000181987 0.0403145 0.0428786 -7.05081e-05 -0.000109491
          -3.00208e-05 0.0858682 0.0392762 0.0210155 0.0328194 0.0470353 0.0171624 0.000204659 0.0484787 0.0588384 0.0641384 0.0248708
          0.0274267 0.000104136 5.72005e-05 0.000153044 0.00946453 0.0120102 0.000315443 0.0173138 0.000258524 0.000374897 0.00562019 0.0237644
          0.0368199 0.118741 0.136914 0.0939713 0.142211 0.109542 0.078403 0.0992689 0.164289 0.192965 0.0547981 0.0834709
          0.0718042 0.507812 0.458313 0.470103 0.546823 0.423207 0.375011 0.517 0.558612 0.563897 0.493421 0.527229
          0.437415 0.468621 0.406212 0.353004 0.386803 0.312615 0.392093 0.343811 0.281421 0.317906 0.429796 0.47409
          0.712237 0.761662 0.656233 0.766941 0.703055 0.609413 0.661514 0.82027 0.880178 0.585838 0.645748 0.602829
          0.274603 0.292793 0.218598 0.329308 0.234185 0.203013 0.255114 0.351403 0.411313 0.116968 0.176878 0.165196
          0.257829 0.302121 0.28252 0.329416 0.235625 0.274828 0.384012 0.355411 0.304612 1.93049 1.855 2.03075
          1.82893 1.95265 1.87586 2.10885 2.00468 2.18694 1.75735 1.661 1.68837 1.59462 1.49957 1.78212
          2.14795 2.0516 2.06334 2.23386 1.9696 2.15708 2.24559 2.25082 2.13361 2.21431 2.03849 1.92651
          1.9695 2.10877 1.86013 1.74945 2.07887 2.15177 1.99289 2.05797 1.8744 1.93687 2.00065 1.81193
          1.72737 1.79245 1.62451 1.68698 1.56204 1.89791 1.47624 1.39552 1.40727 1.54651 1.32915 1.24972
          1.4854 1.55827 1.56352 1.46188 1.52695 1.37464 1.43711 1.31218 1.19643 1.26149 1.12482 1.26675
          1.18727 1.06237 1.13008 1.33571 1.41123 1.80561 1.8863 1.71838 1.89154 1.79647 1.64029 1.72362
          1.97614 2.06727 1.61679 1.70793 1.63375 2.94471 2.83273 2.84446 3.04625 2.73509 2.62442 2.95383
          3.05798 3.06319 2.93037 3.02671 2.81189 2.90562 3.00065 2.71815 2.53982 2.63615 2.43697 2.64137
          2.53069 2.34324 2.44219 2.74161 2.84837 3.3991 3.51107 3.28062 3.51629 3.38998 3.50065 3.17125
          3.28583 3.63217 3.75456 3.75065 3.87565 3.99935 3.62565 3.1478 3.2702 3.25065 3.37565 3.12565
          3.16474 2.46163 2.54234 2.34315 2.57882 2.42125 2.50065 2.26504 2.37963 2.66343 2.78583 2.75065
          2.87565 2.62565 2.17906 2.30146 2.25065 2.37565 2.12565 2.22726 2.31977 2.42654 2.40699 2.51636
          2.29762 2.33672 2.696 2.60488 2.4916 1.13224 1.02026 1.0945 1.17127 0.985126 0.874447 1.20388
          1.24552 1.31325 1.05539 1.08922 0.936898 0.968123 1.00065 0.905672 0.914866 0.948693 0.811999 1.01643
          0.843223 0.780776 0.879738 1.05416 1.16094 1.52414 1.57359 1.40565 1.64133 1.4525 1.50065 1.3588
          1.47338 1.69469 1.81708 1.75065 1.87565 1.62565 1.21031 1.33271 1.25065 1.37565 1.12565 1.28976
          0.586634 0.60484 0.468143 0.703822 0.483746 0.500651 0.452541 0.567126 0.725935 0.848331 0.750651 0.875651
          0.625651 0.241558 0.363954 0.250651 0.375651 0.125651 0.352256 0.63228 0.739053 0.656995 0.766372 0.547618
          0.711735 0.821011 0.792389 0.679107 1.11813 1.16757 1.03088 1.20407 1.07773 1.12587 0.984044 1.06738
          1.25742 1.34856 1.31337 1.40712 1.21962 0.89803 0.98918 0.938363 1.03212 0.84461 0.946244 1.03882
          1.11435 1.09477 1.1729 1.01664 1.0558 1.29001 1.23015 1.14811 1.47604 1.58281 1.53201 1.42138
          1.64138 1.42263 1.37057 1.52425 1.46438 1.75851 1.69864 1.58536 1.118 1.07375 1.21826 1.17141
          1.2651 0.976095 1.36673 1.27037 1.32112 -1.31959 -1.2701 -1.21933 -1.42116 -1.17244 -1.12425 -1.26621
          -1.37038 -1.3131 -1.36776 -1.46412 -1.31176 -1.40551 -1.50057 -1.218 -0.977117 -1.07348 -0.936738 -1.01619
          -1.03049 -0.842983 -0.879457 -0.749228 -1.11646 -1.16074 -1.58656 -1.69854 -1.53056 -1.64125 -1.63993 -1.75061
          -1.42118 -1.47327 -1.75714 -1.81705 -1.87563 -1.93814 -1.99935 -1.81312 -1.52272 -1.58263 -1.62559 -1.6881
          -1.56308 -1.47716 -1.14896 -1.2297 -1.09296 -1.20366 -1.17109 -1.25053 -1.01482 -1.06692 -0.936691 -1.2883
          -1.34821 -1.37555 -1.43806 -1.31304 -1.05388 -1.11379 -1.1255 -0.983554 -1.18801 -1.06299 -0.995268 -1.03956
          -0.964028 -0.944527 -0.988812 -1.03177 -0.858583 -1.07866 -0.984883 -0.901543 -0.898962 -0.807811 -1.25836 -1.16721
          -1.11642 -0.680291 -0.792272 -0.655535 -0.703744 -0.764913 -0.875592 -0.546157 -0.567007 -0.43678 -0.819631 -0.848292
          -0.938122 -0.969386 -0.999349 -0.906857 -0.710193 -0.738855 -0.813061 -0.608627 -0.844327 -0.781796 -0.682833 -0.633383
          -0.526609 -0.350876 -0.363914 -0.469367 -0.233687 -0.485009 -0.499349 -0.453724 -0.339139 -0.24282 -0.120424 -0.249349
          -0.124349 -0.374349 -0.727198 -0.604801 -0.749349 -0.624349 -0.874349 -0.585254 -1.28839 -1.33267 -1.40688 -1.1712
          -1.45376 -1.49935 -1.35999 -1.2454 -1.21158 -1.08918 -1.24935 -1.12435 -1.37435 -1.69595 -1.57356 -1.74935
          -1.62435 -1.87435 -1.52276 -1.05527 -0.948497 -1.09305 -0.983668 -1.20242 -0.913326 -1.05401 -1.02014 -1.13342
          -2.49282 -2.6048 -2.40558 -2.57876 -2.51495 -2.62563 -2.2962 -2.37954 -2.18682 -2.69465 -2.7858 -2.81314
          -2.9069 -2.99935 -2.71939 -2.33525 -2.4264 -2.43812 -2.23369 -2.53188 -2.34437 -2.2454 -2.32093 -2.21416
          -2.2259 -2.30142 -2.34439 -2.10871 -2.42252 -2.49935 -2.26625 -2.15167 -2.18033 -2.05793 -2.24935 -2.12435
          -2.37435 -2.66471 -2.54231 -2.74935 -2.62435 -2.87435 -2.46027 -3.16341 -3.27018 -3.2819 -3.04622 -3.39127
          -3.49935 -3.17252 -3.05793 -3.14908 -3.02669 -3.24935 -3.12435 -3.37435 -3.63346 -3.51107 -3.74935 -3.62435
          -3.87435 -3.39778 -2.74282 -2.63605 -2.84308 -2.73371 -2.95246 -2.53839 -2.92903 -2.83267 -2.94595 -1.63208
          -1.70761 -1.71932 -1.54614 -1.79746 -1.87429 -1.64119 -1.55785 -1.61776 -1.52661 -1.68678 -1.59302 -1.78053
          -1.97716 -1.88601 -2.0618 -1.96804 -2.15555 -1.80397 -1.33647 -1.26094 -1.40549 -1.32736 -1.48362 -1.19452
          -1.46019 -1.39508 -1.47711 -1.89905 -1.79227 -1.96807 -1.82872 -1.85869 -2.07744 -2.00452 -1.72586 -1.66074
          -1.99152 -1.92641 -2.03969 -2.13212 -2.05138 -2.03186 -1.95372 -2.10999 -2.14905 -1.7584 -1.85476 -1.92899
          -0.304966 -0.354461 -0.2802 -0.328431 -0.327091 -0.375284 -0.233308 -0.25417 -0.186416 -0.381831 -0.410501 -0.437834
          -0.469107 -0.499078 -0.406559 -0.272346 -0.301021 -0.312729 -0.233265 -0.344007 -0.281449 -0.244971 -0.258034 -0.213746
          -0.163023 -0.176072 -0.219026 -0.10832 -0.234679 -0.249029 -0.203372 -0.151274 -0.117464 -0.0575546 -0.124004 -0.0614907
          -0.186516 -0.351893 -0.291985 -0.374054 -0.311541 -0.436566 -0.272427 -0.600636 -0.644927 -0.656639 -0.545935 -0.703533
          -0.749125 -0.609744 -0.557646 -0.58632 -0.526412 -0.624102 -0.56159 -0.686613 -0.820746 -0.760838 -0.874148 -0.811637
          -0.936659 -0.710038 -0.429979 -0.385691 -0.467765 -0.420873 -0.514655 -0.350508 -0.491234 -0.457356 -0.508152 -0.0689878
          -0.0820503 -0.0937521 -0.0455239 -0.109418 -0.12378 -0.0780849 -0.0572249 -0.0546813 -0.0260109 -0.0612345 -0.0299603 -0.092507
          -0.164152 -0.135484 -0.186324 -0.155052 -0.217595 -0.115914 -0.023244 -0.0101918 -0.0298063 -0.0141504 -0.0454602 -0.00623103
          -0.0220598 -0.0194081 -0.0389672 -0.0860857 -0.0417962 -0.0926316 -0.0782378 -0.0457383 -0.139524 -0.129074 -0.0378529 -0.0352094
          -0.0536174 -0.0509804 -0.101778 -0.194183 -0.17592 -0.156402 -0.140743 -0.172061 -0.211096 -0.0703871 -0.104264 -0.116019
          -0.256972 -0.270014 -0.344218 -0.171028 -0.359863 -0.374207 -0.328572 -0.245232 -0.312926 -0.180164 -0.0890119 -0.186696
          -0.0929401 -0.280451 -0.539563 -0.448412 -0.561717 -0.516107 -0.467962 -0.655473 -0.629413 -0.428861 -0.410612 -0.148822
          -0.0732914 -0.155357 -0.140984 -0.077223 -0.233491 -0.22305 -0.0693591 -0.0667274 -0.0850831 -0.0824554 -0.164494 -0.211495
          -0.104721 -0.218025 -0.203663 -0.108647 -0.327402 -0.316967 -0.100795 -0.0981695 -0.116498 -0.113875 -0.227158 -0.50706
          -0.488813 -0.406796 -0.391152 -0.422439 -0.586474 -0.19583 -0.292189 -0.303928 -0.742647 -0.667117 -0.780425 -0.703567
          -0.702292 -0.62546 -0.858558 -0.816875 -0.631942 -0.598068 -0.562921 -0.531651 -0.594191 -0.772638 -0.738767 -0.687996
          -0.656728 -0.719263 -0.820806 -0.913232 -0.863736 -0.844211 -0.797319 -0.891102 -0.930153 -0.664485 -0.729601 -0.772587
          -0.350651 -0.332399 -0.28163 -0.420974 -0.265981 -0.297278 -0.370205 -0.398816 -0.463932 -0.133145 -0.198261 -0.210005
          -0.49265 -0.573388 -0.467892 -0.546025 -0.389758 -0.60075 -0.491297 -0.519963 -0.445735 0.0782635 0.062853 0.0896139
          0.0652767 0.0711707 0.053654 0.107254 0.091624 0.124261 0.05406 0.046619 0.0451686 0.040457 0.0342051 0.049406
          0.0873703 0.0808267 0.0613347 0.114446 0.0574911 0.0648157 0.0952526 0.0682475 0.103516 0.124233 0.0870269 0.0614387
          0.0822359 0.0924062 0.0595451 0.0350022 0.104004 0.113984 0.0614547 0.0569623 0.025548 0.0141471 0.00583118 0.0315535
          0.0519136 0.0549479 0.0367979 0.0365322 0.0358966 0.0725994 0.00860791 0.0181908 -0.00261305 0.0209071 0.00965614 0.0204664
          -0.0151955 0.000357866 -0.0278231 0.0261748 0.0322988 0.0285319 0.0316625 0.0247349 -0.00870935 -0.000633852 0.0104475 -0.0293449
          0.0156532 0.00478246 -0.0184722 -0.00117858 -0.0172135 -0.0324614 0.0093176 0.0323257 0.0124202 0.00471174 0.032519 -0.00820392
          -0.0154316 0.031797 0.0326052 0.0325065 0.0340594 0.0180951 0.289795 0.267024 0.249089 0.331489 0.229038 0.207468
          0.268711 0.313913 0.288279 0.304232 0.339301 0.273911 0.305763 0.338336 0.241033 0.151284 0.18912 0.13826
          0.162773 0.173134 0.102775 0.111637 0.204715 0.221654 0.417085 0.469615 0.387827 0.444763 0.437318 0.487704
          0.337605 0.362648 0.50144 0.534624 0.560498 0.596406 0.630791 0.524118 0.372168 0.406399 0.41374 0.450736
          0.376076 0.361142 0.186634 0.203349 0.154763 0.21662 0.167943 0.181196 0.139995 0.167333 0.237716 0.273641
          0.260911 0.299728 0.220957 0.0955406 0.134311 0.0984384 0.139913 0.0533545 0.125409 0.140692 0.158506 0.167917
          0.18846 0.146848 0.127806 0.246125 0.216395 0.191165 -0.111627 -0.104476 -0.143956 -0.0770622 -0.135093 -0.118358
          -0.0904451 -0.127934 -0.0607815 -0.067532 -0.03422 -0.0609819 -0.0302038 0.00206935 -0.0917928 -0.070914 -0.108875 -0.0908578
          -0.0538633 -0.127981 -0.052982 -0.0376653 -0.0170951 -0.0872281 -0.062446 -0.0979617 -0.0554708 -0.0901088 -0.0462083 -0.0469172
          0.00275113 -0.0871072 -0.0550373 -0.0470466 -0.0421357 -0.00311558 -0.000901178 0.00267832 -0.0382698 -0.0410827 0.00210788 0.00204432
          0.00217133 -0.0842088 -0.0369954 -0.0188334 -0.0305116 -0.0448127 -0.0149592 0.00190368 -0.0460335 -0.0564528 -0.0615282 -0.022677
          -0.0252105 0.00200756 0.00206066 0.00194386 -0.00721987 -0.00978083 0.00181701 -0.0149556 0.0018611 0.00177866 -0.00336035 -0.0214169
          -0.0343399 -0.118529 -0.138127 -0.0911384 -0.142867 -0.107949 -0.0758934 -0.09674 -0.110772 -0.0683009 -0.0524921 -0.0810209
          -0.0697264 0.0398259 0.0286827 0.0412049 0.036807 0.0269217 0.0134213 0.0545833 0.0489335 0.0674097 0.0298552 0.03239
          0.0252241 0.0305003 0.019353 0.0226779 0.0265571 9.23072e-05 0.0460194 0.0067727 -0.00751041 0.0201428 0.045134 0.0615917
          0.0478819 0.0332797 0.0457567 0.051083 0.033846 0.0573036 0.0638245 0.0321794 0.0293683 0.0334495 0.0326141 0.0400961
          -0.00123758 0.0195954 -0.0104632 0.00845716 0.013186 -0.0356128 -0.0209737 0.0242294 0.0265268 -0.00683745 0.00403969 -0.0257106
          -0.0369939 -0.0155064 -0.0224619 -0.00463911 -0.0423257 -0.0274795 0.0164615 0.00776255 -0.00512693 -0.436217 -0.392983 -0.482695
          -0.388538 -0.436817 -0.392315 -0.528717 -0.478135 -0.574764 -0.349393 -0.307337 -0.31298 -0.273682 -0.233222 -0.352547
          -0.525091 -0.482163 -0.472522 -0.57905 -0.432327 -0.512942 -0.569513 -0.553511 -0.53214 -0.5808 -0.501204 -0.442972
          -0.464468 -0.539336 -0.408978 -0.352312 -0.520198 -0.560943 -0.477117 -0.509944 -0.41237 -0.442554 -0.474112 -0.382337
          -0.34116 -0.373664 -0.292589 -0.322446 -0.262901 -0.425142 -0.198915 -0.173099 -0.162865 -0.236386 -0.139827 -0.115647
          -0.186206 -0.226292 -0.209747 -0.206563 -0.238704 -0.174233 -0.203722 -0.144935 -0.0735006 -0.105229 -0.0574951 -0.0883446
          -0.0865654 -0.0286458 -0.0404463 -0.124229 -0.144799 -0.332813 -0.381172 -0.299507 -0.364917 -0.345223 -0.253948 -0.283135
          -0.417363 -0.455054 -0.273979 -0.310794 -0.269203 -0.984399 -0.924707 -0.91552 -1.05465 -0.858532 -0.800335 -0.972684
          -1.04555 -1.02997 -0.990992 -1.05596 -0.924785 -0.987124 -1.05082 -0.862557 -0.726308 -0.791043 -0.676127 -0.775264
          -0.738228 -0.614147 -0.660257 -0.844046 -0.898508 -1.25189 -1.33285 -1.18509 -1.31745 -1.26342 -1.3431 -1.10686
          -1.16962 -1.40243 -1.47344 -1.49008 -1.56378 -1.63624 -1.41653 -1.12498 -1.19543 -1.19667 -1.26982 -1.12368
          -1.12115 -0.732607 -0.78154 -0.667075 -0.796919 -0.713371 -0.761031 -0.620907 -0.682358 -0.849908 -0.919742 -0.905592
          -0.978134 -0.833235 -0.577566 -0.646683 -0.617185 -0.689026 -0.54556 -0.604472 -0.633101 -0.686883 -0.688534 -0.745034
          -0.632238 -0.628857 -0.861464 -0.801871 -0.741376 -0.0315926 0.0245466 -0.0273879 -0.0372418 0.0259353 0.0803664 -0.0810765
          -0.089344 -0.135004 0.0229266 0.0226341 0.0855845 0.0879552 0.0889136 0.0829823 0.0284471 0.0286562 0.0746174 -0.0165936
          0.0774991 0.0714606 0.0295714 -0.0205989 -0.0714821 -0.225033 -0.24166 -0.161222 -0.287659 -0.175198 -0.190564 -0.147428
          -0.207084 -0.308403 -0.376676 -0.331879 -0.402899 -0.261115 -0.0430377 -0.110293 -0.0502615 -0.120295 0.0194575 -0.100481
          0.265684 0.281939 0.326846 0.20563 0.345785 0.363274 0.307595 0.250768 0.217628 0.151652 0.226819 0.158015
          0.295218 0.472165 0.407896 0.49804 0.430859 0.56466 0.384597 0.174027 0.124659 0.183787 0.131548 0.235538
          0.117477 0.145045 0.139766 0.196126 -0.0846302 -0.100411 -0.0535144 -0.114599 -0.0666306 -0.0811631 -0.0406436 -0.0675206
          -0.134561 -0.170309 -0.15729 -0.195824 -0.119087 -9.92234e-05 -0.0344911 -0.00638191 -0.0436133 0.0304191 -0.0256291 -0.0501625
          -0.0695087 -0.0724337 -0.0945946 -0.0506575 -0.0446558 -0.144995 -0.118358 -0.0921241 -0.220716 -0.272765 -0.243842 -0.199011
          -0.298655 -0.189318 -0.17023 -0.247052 -0.220017 -0.35061 -0.323225 -0.264379 -0.0621089 -0.0514096 -0.106475 -0.0931129
          -0.120057 -0.0100847 -0.177434 -0.136436 -0.153994 1.32042 1.27098 1.22028 1.42186 1.17343 1.12528 1.26713
          1.37115 1.31398 1.36852 1.46478 1.31256 1.40622 1.50118 1.21891 0.978388 1.0746 0.938045 1.01741
          1.03165 0.844466 0.880898 0.750921 1.11757 1.16183 1.58701 1.69889 1.53113 1.64157 1.6404 1.751
          1.42187 1.47386 1.75739 1.81718 1.87584 1.93825 1.99934 1.81343 1.52334 1.58319 1.62611 1.68857
          1.56366 1.47781 1.14982 1.23047 1.09384 1.20451 1.17188 1.25123 1.01579 1.06788 0.937754 1.28906
          1.34895 1.37622 1.43871 1.31373 1.05469 1.11459 1.12623 0.984441 1.18874 1.06373 0.996083 1.04044
          0.964997 0.945708 0.989991 1.03282 0.859891 1.07971 0.985944 0.902716 0.900281 0.809295 1.25919 1.16814
          1.11736 0.820221 0.860247 0.75321 0.884341 0.794099 0.845589 0.713099 0.775427 0.670942 0.928961 1.00091
          0.973071 1.04968 1.12393 0.892696 0.709674 0.736974 0.815064 0.607323 0.845126 0.783424 0.684559 0.686343
          0.65081 0.726635 0.777571 0.782211 0.671831 0.83598 0.888062 0.727538 0.677085 0.717972 0.656237 0.761054
          0.696231 0.82498 0.948552 0.891847 1.01032 0.949886 1.06874 0.832717 1.2889 1.33276 1.40736 1.17192
          1.45393 1.49907 1.36072 1.24632 1.21153 1.08456 1.24262 1.178 1.37482 1.69611 1.57371 1.74933
          1.62436 1.87434 1.52311 1.05653 0.950018 1.09457 0.986103 1.20359 0.914487 1.05986 1.02011 1.13499
          2.49294 2.6049 2.40573 2.57885 2.51509 2.62575 2.29638 2.37968 2.18703 2.69472 2.78584 2.8132
          2.90693 2.99935 2.71948 2.33545 2.42657 2.43829 2.23391 2.53202 2.34456 2.24562 2.32113 2.21438
          2.22602 2.30149 2.3445 2.10885 2.42258 2.49935 2.26642 2.15186 2.18041 2.05802 2.24935 2.12435
          2.37435 2.66475 2.54236 2.74935 2.62435 2.87435 2.46037 3.16344 3.2702 3.28192 3.04626 3.39129
          3.49935 3.17256 3.05798 3.14911 3.02671 3.24935 3.12435 3.37435 3.63347 3.51108 3.74935 3.62435
          3.87435 3.3978 2.74292 2.63616 2.84317 2.7338 2.95253 2.53853 2.92908 2.83275 2.94602 1.63255
          1.70806 1.71974 1.54667 1.79785 1.87466 1.64163 1.55834 1.61827 1.52718 1.68726 1.59357 1.78095
          1.97746 1.88635 2.06208 1.96836 2.1558 1.80434 1.33706 1.26159 1.40607 1.328 1.48414 1.19519