<?xml version="1.0"?>
<VTKFile type="UnstructuredGrid" version="0.1" byte_order="LittleEndian">
  <UnstructuredGrid>
    <Piece NumberOfCells="32768" NumberOfPoints="16641">
      <PointData Scalars="Uh">
        <DataArray type="Float32" Name="Uh" NumberOfComponents="1" format="ascii">
          -0.482428 -0.494804 -0.444988 -0.519543 -0.456713 -0.468763 -0.433263 -0.469727 -0.421538 -0.532895 -0.571311 -0.546898
          -0.585965 -0.624707 -0.507831 -0.380531 -0.418947 -0.390628 -0.370758 -0.429696 -0.35156 -0.342439 -0.312492 -0.408199
          -0.397125 -0.478184 -0.512695 -0.492187 -0.464507 -0.527349 -0.562185 -0.457026 -0.443999 -0.498041 -0.483061 -0.530924
          -0.515294 -0.499989 -0.546555 -0.556657 -0.541678 -0.593446 -0.577815 -0.609076 -0.50554 -0.587606 -0.629927 -0.601609
          -0.573928 -0.644581 -0.687228 -0.558636 -0.545609 -0.515663 -0.615273 -0.600294 -0.655968 -0.640337 -0.671598 -0.673889
          -0.65891 -0.718489 -0.628964 -0.702859 -0.73412 -0.688543 -0.74975 -0.614961 -0.571337 -0.451193 -0.440119 -0.491888
          -0.410173 -0.480163 -0.503613 -0.461942 -0.400075 -0.360356 -0.56025 -0.520532 -0.533233 -0.204696 -0.239208 -0.210888
          -0.198829 -0.246051 -0.280889 -0.175725 -0.170509 -0.140562 -0.232365 -0.225197 -0.26525 -0.25743 -0.249936 -0.273069
          -0.259738 -0.252569 -0.296528 -0.222622 -0.288708 -0.304347 -0.266581 -0.21643 -0.180616 -0.0995224 -0.0962591 -0.132408
          -0.0663112 -0.128494 -0.124905 -0.136322 -0.10246 -0.0640242 -0.0321145 -0.0623881 -0.0311292 0.000455248 -0.0936468 -0.192963
          -0.161054 -0.187421 -0.156163 -0.218679 -0.165944 -0.365205 -0.354131 -0.398089 -0.331995 -0.386364 -0.374964 -0.409813
          -0.375953 -0.321897 -0.289989 -0.312451 -0.281194 -0.343707 -0.450829 -0.418922 -0.437477 -0.40622 -0.468733 -0.431623
          -0.360986 -0.325173 -0.351539 -0.316377 -0.386702 -0.333969 -0.298785 -0.307256 -0.341442 -0.751662 -0.786172 -0.773476
          -0.730173 -0.808637 -0.843472 -0.738316 -0.717478 -0.703155 -0.763707 -0.740916 -0.796589 -0.773147 -0.750031 -0.82003
          -0.853567 -0.830777 -0.890355 -0.816454 -0.866914 -0.913797 -0.876033 -0.937239 -0.79464 -0.758828 -0.630875 -0.61199
          -0.663758 -0.597667 -0.644221 -0.625011 -0.683294 -0.649434 -0.579758 -0.547851 -0.5625 -0.531244 -0.593756 -0.708685
          -0.676778 -0.687521 -0.656266 -0.718776 -0.697291 -0.896536 -0.86984 -0.929418 -0.863329 -0.902071 -0.875049 -0.956765
          -0.922907 -0.984113 -0.837609 -0.805704 -0.81254 -0.781285 -0.843794 -0.966532 -0.934627 -0.937557 -0.995832 -0.906303
          -0.968811 -0.998762 -1.00007 -0.962951 -0.990949 -0.939187 -0.903376 -0.914118 -0.964582 -0.878958 -0.949278 -0.975324
          -0.927794 -0.951887 -0.830122 -0.854214 -0.888398 -0.779352 -0.760467 -0.820046 -0.738332 -0.80051 -0.781299 -0.839581
          -0.797911 -0.859117 -0.720424 -0.680706 -0.703166 -0.664099 -0.742232 -0.880595 -0.840878 -0.859432 -0.902084 -0.820365
          -0.898498 -0.920638 -0.86139 -0.881577 -0.790756 -0.747133 -0.773499 -0.80834 -0.730526 -0.816471 -0.834705 -0.76374
          -0.780021 -0.697313 -0.713594 -0.75559 -0.650091 -0.614279 -0.632833 -0.667674 -0.597672 -0.667994 -0.686228 -0.630885
          -0.647167 -0.564458 -0.580739 -0.614924 -0.779341 -0.799528 -0.741902 -0.761438 -0.722365 -0.837617 -0.685257 -0.723673
          -0.705113 -0.298566 -0.348699 -0.304758 -0.292699 -0.355543 -0.406001 -0.253974 -0.248758 -0.203189 -0.341856 -0.334687
          -0.390362 -0.382543 -0.375048 -0.398182 -0.369229 -0.362061 -0.421641 -0.316492 -0.413821 -0.42946 -0.376073 -0.43728
          -0.3103 -0.258865 -0.146529 -0.143265 -0.195035 -0.0976966 -0.191121 -0.187532 -0.19895 -0.149467 -0.0954094 -0.0478789
          -0.0937731 -0.0468934 0.000311866 -0.140653 -0.286832 -0.239302 -0.281291 -0.234411 -0.32817 -0.244193 -0.537182 -0.526108
          -0.585687 -0.48835 -0.573962 -0.562563 -0.597412 -0.54793 -0.609137 -0.478253 -0.430723 -0.468806 -0.421927 -0.515684
          -0.669672 -0.622142 -0.656319 -0.683349 -0.609441 -0.703197 -0.717526 -0.634844 -0.64722 -0.517342 -0.465907 -0.507895
          -0.527114 -0.457111 -0.558679 -0.569102 -0.474703 -0.483173 -0.439519 -0.44799 -0.497797 -0.170034 -0.16677 -0.226351
          -0.113391 -0.222436 -0.218847 -0.230265 -0.172972 -0.234179 -0.111104 -0.0557632 -0.109467 -0.0547775 0.000237821 -0.164157
          -0.333768 -0.278427 -0.328226 -0.339635 -0.273537 -0.382916 -0.389434 -0.283318 -0.287884 -0.118952 -0.0597057 -0.117315
          -0.120913 -0.05872 0.000200326 -0.17591 -0.178523 -0.0606913 -0.0613516 0.000181514 0.000172101 -0.000162678 0.000190934 -0.0567488
          -0.057409 0.000219101 0.000209738 0.000228496 -0.115028 -0.103257 -0.0518208 -0.10162 -0.105218 -0.0508353 0.000275033 -0.152405
          -0.155018 -0.0528064 -0.0534665 0.000256469 0.000247189 0.000265804 -0.0488643 -0.0495243 0.000293501 0.000284329 0.000302752 -0.099333
          -0.263755 -0.268321 -0.210693 -0.214607 -0.206778 -0.322034 -0.10718 -0.161219 -0.158281 -0.123025 -0.119762 -0.163721
          -0.0820033 -0.159807 -0.156218 -0.167635 -0.125963 -0.17155 -0.0797163 -0.039996 -0.0780801 -0.0390107 0.000384251 -0.117149
          -0.239897 -0.200178 -0.234356 -0.245764 -0.195287 -0.273424 -0.279942 -0.205068 -0.209633 -0.0875627 -0.0439372 -0.0859264
          -0.0895243 -0.0429518 0.00034827 -0.128901 -0.131513 -0.0449225 -0.0455825 0.000330122 0.00032107 0.000339278 -0.0409812 -0.0416411
          0.000366311 0.000357377 0.000375372 -0.0836394 -0.0718701 -0.0360551 -0.070234 -0.0738316 -0.0350699 0.000419872 -0.105398 -0.10801
          -0.0370402 -0.0377 0.000402101 0.00039327 0.000411082 -0.0330995 -0.0337593 0.000437581 0.000428824 0.000446512 -0.0679472 -0.185506
          -0.190071 -0.148065 -0.151979 -0.14415 -0.228163 -0.0757932 -0.114212 -0.111274 -0.439164 -0.39554 -0.429717 -0.448936
          -0.386744 -0.343445 -0.47269 -0.483113 -0.404335 -0.412806 -0.359084 -0.366903 -0.351264 -0.369152 -0.377622 -0.327806
          -0.335625 -0.319986 -0.419619 -0.584039 -0.596414 -0.538788 -0.550512 -0.527063 -0.642316 -0.458708 -0.504936 -0.494187
          -0.22463 -0.229195 -0.179378 -0.269557 -0.183292 -0.175464 -0.21974 -0.275098 -0.321326 -0.091486 -0.137715 -0.134777
          -0.251631 -0.293954 -0.257823 -0.300797 -0.214849 -0.28711 -0.314483 -0.307314 -0.263364 -0.110826 -0.129717 -0.117019
          -0.104959 -0.13656 -0.155776 -0.0974769 -0.0922608 -0.077935 -0.122873 -0.115704 -0.140136 -0.132317 -0.124822 -0.147956
          -0.150247 -0.143078 -0.171415 -0.128753 -0.163596 -0.179235 -0.15709 -0.187055 -0.12256 -0.102368 -0.0525164 -0.0492529
          -0.0697808 -0.0349265 -0.0658663 -0.0622771 -0.0736951 -0.0554546 -0.0326393 -0.0163507 -0.0310028 -0.0153651 0.0005982 -0.0466402
          -0.099092 -0.0828048 -0.0935502 -0.0779139 -0.109186 -0.0876955 -0.193226 -0.182151 -0.210488 -0.175638 -0.198762 -0.187362
          -0.222213 -0.203975 -0.233938 -0.16554 -0.149254 -0.156093 -0.140458 -0.171728 -0.231984 -0.215699 -0.218631 -0.245662
          -0.202997 -0.234265 -0.248594 -0.249899 -0.2284 -0.240776 -0.20463 -0.184438 -0.195183 -0.214402 -0.175642 -0.214723
          -0.225147 -0.193234 -0.201705 -0.15805 -0.166521 -0.185085 -0.07602 -0.0727567 -0.101095 -0.0506194 -0.0971808 -0.093592
          -0.105009 -0.0789579 -0.108923 -0.0483324 -0.0242333 -0.0466962 -0.023248 0.000525968 -0.0701443 -0.146028 -0.12193 -0.140487
          -0.151895 -0.117039 -0.163933 -0.170451 -0.12682 -0.131386 -0.0561784 -0.0281739 -0.0545423 -0.0581398 -0.0271887 0.000490544
          -0.0818956 -0.084508 -0.029159 -0.0298187 0.000472894 0.000464168 0.000481816 -0.0252184 -0.0258781 0.000508226 0.000499481 0.000517191
          -0.0522554 -0.0404861 -0.0202923 -0.0388498 -0.0424477 -0.0193069 0.000561763 -0.0583925 -0.0610051 -0.0212775 -0.0219373 0.000543803
          0.000534977 0.000552872 -0.0173361 -0.0179961 0.000579883 0.000570909 0.000589125 -0.0365628 -0.107258 -0.111823 -0.0854382 -0.0893524
          -0.0815238 -0.134294 -0.0444093 -0.0672065 -0.0642685 -0.0290098 -0.0257457 -0.0384636 -0.0192306 -0.0345485 -0.0309588 -0.0423784
          -0.0319485 -0.0462931 -0.0169427 -0.00846479 -0.0153057 -0.00747857 0.000674217 -0.0231324 -0.0521529 -0.0436763 -0.0466105 -0.0580205
          -0.0387849 -0.0544359 -0.0609545 -0.062261 -0.0485675 -0.0531333 -0.0247915 -0.0124083 -0.0231548 -0.0267535 -0.0114225 0.000635578
          -0.0348869 -0.0374999 -0.0133939 -0.0140541 0.000616752 0.000607555 0.000626241 -0.00945069 -0.0101112 0.000654719 0.00064522 0.000664535
          -0.0208673 -0.00909245 -0.00451975 -0.00745498 -0.0110551 -0.00353311 0.000714459 -0.0113765 -0.0139902 -0.0152977 -0.00550606 -0.00616694
          0.000694115 0.000684228 0.000704344 -0.00155968 -0.00222105 0.000735296 -0.00352909 0.000724929 0.000746031 -0.000572888 0.000756814 -0.00516666
          -0.00843736 -0.0290018 -0.033568 -0.0228031 -0.0348749 -0.0267183 -0.0188877 -0.0241103 -0.0404173 -0.0475919 -0.0130178 -0.0201937
          -0.0172547 -0.126449 -0.114069 -0.117002 -0.136222 -0.105272 -0.0932167 -0.128731 -0.139155 -0.140461 -0.122865 -0.131336
          -0.108857 -0.116677 -0.101037 -0.087679 -0.0961502 -0.0775763 -0.0974562 -0.0853965 -0.0697559 -0.0788825 -0.106904 -0.117982
          -0.177593 -0.18997 -0.163586 -0.191275 -0.175312 -0.151861 -0.164892 -0.204628 -0.219611 -0.145995 -0.160979 -0.15023
          -0.068132 -0.0726975 -0.0541227 -0.0818158 -0.0580372 -0.0502079 -0.0632411 -0.0873576 -0.102343 -0.0287155 -0.043702 -0.0407637
          -0.063888 -0.0749679 -0.0700809 -0.0818116 -0.0583499 -0.0681239 -0.0954991 -0.08833 -0.0756229 -0.482397 -0.463512 -0.507469
          -0.457 -0.487933 -0.468722 -0.527005 -0.500957 -0.546541 -0.439092 -0.414996 -0.421834 -0.398389 -0.374619 -0.445278
          -0.536773 -0.512679 -0.51561 -0.558262 -0.492166 -0.539053 -0.561193 -0.562497 -0.533191 -0.553378 -0.509425 -0.481424
          -0.492167 -0.527008 -0.464817 -0.437141 -0.519517 -0.537751 -0.498031 -0.514312 -0.468402 -0.484033 -0.452772 -0.431603
          -0.447885 -0.40588 -0.421511 -0.39025 -0.474258 -0.368758 -0.348568 -0.3515 -0.386341 -0.331961 -0.312097 -0.371039
          -0.389273 -0.390577 -0.365175 -0.381457 -0.343358 -0.358989 -0.327727 -0.298747 -0.315029 -0.280835 -0.316333 -0.296466
          -0.265204 -0.28214 -0.333591 -0.352479 -0.451141 -0.471328 -0.429324 -0.472632 -0.44886 -0.409788 -0.430628 -0.493795
          -0.516588 -0.403925 -0.426718 -0.408158 -0.736031 -0.708031 -0.710962 -0.761425 -0.683613 -0.655939 -0.738311 -0.764356
          -0.765659 -0.732449 -0.756542 -0.702822 -0.726264 -0.67938 -0.634777 -0.658869 -0.609055 -0.660173 -0.632497 -0.585613
          -0.610358 -0.685242 -0.71194 -0.849655 -0.877654 -0.820029 -0.878957 -0.847376 -0.792681 -0.821332 -0.907932 -0.938535
          -0.78682 -0.817424 -0.791053 -0.615241 -0.635428 -0.585613 -0.644543 -0.605149 -0.566077 -0.594729 -0.665707 -0.696311
          -0.544591 -0.575196 -0.556636 -0.579751 -0.60645 -0.601566 -0.628915 -0.574216 -0.583984 -0.673845 -0.651055 -0.622729
          -0.282808 -0.254806 -0.273362 -0.292581 -0.24601 -0.218333 -0.300713 -0.311136 -0.328064 -0.263602 -0.272072 -0.233972
          -0.241791 -0.226152 -0.228418 -0.236889 -0.202694 -0.253817 -0.210513 -0.194874 -0.219622 -0.263264 -0.289964 -0.380818
          -0.393194 -0.351189 -0.410121 -0.362914 -0.339464 -0.368116 -0.423474 -0.454079 -0.302353 -0.332959 -0.32221 -0.146382
          -0.150947 -0.116752 -0.175688 -0.120666 -0.112837 -0.141492 -0.181229 -0.211836 -0.0601013 -0.0907091 -0.0877712 -0.157762
          -0.184463 -0.163954 -0.191306 -0.136601 -0.17762 -0.204993 -0.197824 -0.169495 -0.279207 -0.291583 -0.257389 -0.300699
          -0.269114 -0.281164 -0.245663 -0.266505 -0.314051 -0.336846 -0.328055 -0.3515 -0.304609 -0.224175 -0.24697 -0.234272
          -0.257718 -0.210826 -0.236221 -0.25934 -0.278228 -0.273343 -0.292883 -0.253803 -0.263574 -0.322191 -0.307212 -0.286696
          -0.368763 -0.395462 -0.382766 -0.355085 -0.410116 -0.355415 -0.342388 -0.380808 -0.365828 -0.439425 -0.424445 -0.396118
          -0.279216 -0.268142 -0.304289 -0.292564 -0.316014 -0.243719 -0.341407 -0.317311 -0.330012 -1.89239 -1.94252 -1.92982
          -1.85527 -1.9806 -2.03106 -1.87904 -1.84258 -1.82826 -1.90443 -1.86601 -1.95293 -1.91387 -1.87513 -1.992
          -2.05678 -2.01837 -2.10919 -2.00405 -2.07013 -2.14826 -2.09487 -2.18732 -1.96661 -1.91517 -1.70911 -1.6746
          -1.75761 -1.66028 -1.72246 -1.68762 -1.79277 -1.74329 -1.62675 -1.57922 -1.59387 -1.54699 -1.49979 -1.64074
          -1.81816 -1.77063 -1.78138 -1.7345 -1.82825 -1.80677 -2.09975 -2.05743 -2.14825 -2.05092 -2.10528 -2.06264
          -2.19122 -2.14174 -2.23419 -2.00957 -1.96205 -1.96888 -1.92201 -2.01576 -2.20099 -2.15346 -2.15639 -2.24591
          -2.10951 -2.20326 -2.24884 -2.25014 -2.19741 -2.24103 -2.17364 -2.12221 -2.13295 -2.21466 -2.08217 -2.18373
          -2.2254 -2.16225 -2.20197 -2.00209 -2.0418 -2.09161 -1.98257 -1.94806 -2.03888 -1.92593 -2.00373 -1.96889
          -2.07404 -2.01675 -2.1092 -1.8924 -1.83706 -1.85952 -1.80483 -1.74981 -1.9142 -2.11506 -2.05972 -2.07827
          -2.15217 -2.02358 -2.13296 -2.17072 -2.09585 -2.13166 -2.02522 -1.96597 -1.99234 -2.05843 -1.93374 -1.87483
          -2.05093 -2.08479 -1.9982 -2.03011 -1.93733 -1.96858 -2.00016 -1.90608 -1.86929 -1.90119 -1.81232 -1.84357
          -1.78107 -1.95881 -1.75957 -1.70814 -1.72669 -1.79278 -1.67591 -1.6248 -1.77747 -1.81133 -1.74037 -1.77227
          -1.68731 -1.71856 -1.65605 -1.61145 -1.64335 -1.56229 -1.59355 -1.53104 -1.69316 -1.95131 -1.98712 -1.89825
          -1.93341 -1.86309 -2.04083 -1.82598 -1.88002 -1.84584 -1.43565 -1.40114 -1.47634 -1.39463 -1.44118 -1.40635
          -1.5115 -1.46983 -1.54666 -1.3611 -1.32138 -1.32822 -1.28916 -1.24976 -1.36729 -1.52127 -1.48155 -1.48448
          -1.55838 -1.44542 -1.52355 -1.56131 -1.56261 -1.51769 -1.5535 -1.49392 -1.4503 -1.46104 -1.52713 -1.41807
          -1.37478 -1.50402 -1.53787 -1.48253 -1.51444 -1.43728 -1.46854 -1.40603 -1.35361 -1.38552 -1.31227 -1.34352
          -1.28102 -1.42751 -1.22828 -1.19247 -1.1954 -1.26148 -1.16024 -1.12475 -1.23056 -1.26441 -1.26572 -1.2247
          -1.2566 -1.18726 -1.21851 -1.15601 -1.09578 -1.12768 -1.06225 -1.12898 -1.0935 -1.03099 -1.06355 -1.16187
          -1.19637 -1.37315 -1.40896 -1.33571 -1.41026 -1.37087 -1.30055 -1.33701 -1.44704 -1.48546 -1.29469 -1.3331
          -1.29892 -1.8455 -1.80188 -1.80481 -1.88652 -1.76184 -1.71854 -1.84778 -1.88945 -1.89075 -1.84192 -1.88164
          -1.79667 -1.83574 -1.75761 -1.68176 -1.72147 -1.64042 -1.72278 -1.67948 -1.60135 -1.64172 -1.76347 -1.80579
          -2.02162 -2.06524 -1.97637 -2.06654 -2.01934 -1.9334 -1.97767 -2.11114 -2.15736 -1.92754 -1.97376 -1.93177
          -1.66223 -1.69804 -1.61698 -1.70715 -1.65214 -1.58182 -1.62609 -1.74394 -1.79016 -1.56034 -1.60656 -1.57238
          -1.59549 -1.63781 -1.63293 -1.6759 -1.58996 -1.59972 -1.75208 -1.71366 -1.66971 -2.88883 -2.8387 -2.94514
          -2.83219 -2.89436 -2.8439 -2.99593 -2.93863 -3.04671 -2.78303 -2.72769 -2.73453 -2.67984 -2.62483 -2.78922
          -3.00569 -2.95035 -2.95328 -3.05843 -2.89859 -3.00797 -3.06136 -3.06266 -3.00211 -3.05354 -2.97835 -2.9191
          -2.92985 -3.02718 -2.87125 -2.81233 -2.98844 -3.03792 -2.96696 -3.01448 -2.90608 -2.95296 -3.00016 -2.85921
          -2.77555 -2.82307 -2.71858 -2.76546 -2.6717 -2.88069 -2.58771 -2.53628 -2.53921 -2.63654 -2.48843 -2.43732
          -2.58999 -2.63947 -2.64078 -2.58413 -2.63166 -2.53107 -2.57795 -2.4842 -2.39272 -2.44025 -2.34357 -2.44155
          -2.39044 -2.29669 -2.34487 -2.49006 -2.54019 -2.79508 -2.84651 -2.74201 -2.84781 -2.7928 -2.69123 -2.74332
          -2.90022 -2.95426 -2.68537 -2.73941 -2.6896 -3.45491 -3.39567 -3.3986 -3.51155 -3.34 -3.28108 -3.45719
          -3.51448 -3.51579 -3.45133 -3.50667 -3.39046 -3.44515 -3.50016 -3.33577 -3.22867 -3.28401 -3.17171 -3.28532
          -3.2264 -3.11702 -3.17301 -3.34163 -3.39957 -3.69352 -3.75277 -3.63265 -3.75407 -3.69124 -3.75016 -3.57405
          -3.63395 -3.81429 -3.87614 -3.87516 -3.93766 -3.99984 -3.81266 -3.5682 -3.63005 -3.62516 -3.68766 -3.56266
          -3.57243 -3.20915 -3.26058 -3.14827 -3.26969 -3.19905 -3.25016 -3.09749 -3.15739 -3.3221 -3.38395 -3.37516
          -3.43766 -3.31266 -3.07601 -3.13786 -3.12516 -3.18766 -3.06266 -3.08805 -3.11116 -3.1691 -3.16422 -3.22282
          -3.10563 -3.11539 -3.33024 -3.2762 -3.21663 -2.50178 -2.44254 -2.46109 -2.5428 -2.4025 -2.34358 -2.51969
          -2.56136 -2.57828 -2.48258 -2.5223 -2.42171 -2.46077 -2.50016 -2.38264 -2.32242 -2.36213 -2.26545 -2.37906
          -2.30451 -2.22638 -2.28238 -2.41975 -2.47769 -2.72477 -2.76839 -2.6639 -2.78532 -2.70687 -2.75016 -2.62093
          -2.68082 -2.82991 -2.89176 -2.87516 -2.93766 -2.81266 -2.58382 -2.64567 -2.62516 -2.68766 -2.56266 -2.60367
          -2.24039 -2.2762 -2.17952 -2.30094 -2.21468 -2.25016 -2.14436 -2.20426 -2.33773 -2.39957 -2.37516 -2.43766
          -2.31266 -2.09163 -2.15348 -2.12516 -2.18766 -2.06266 -2.1193 -2.18928 -2.24722 -2.22672 -2.28531 -2.16812
          -2.20913 -2.36149 -2.32307 -2.2635 -2.37319 -2.41681 -2.32013 -2.42593 -2.3631 -2.4064 -2.27716 -2.32925
          -2.47053 -2.52456 -2.51578 -2.57046 -2.46109 -2.25568 -2.30972 -2.29702 -2.35171 -2.24233 -2.26772 -2.29083
          -2.34096 -2.33608 -2.38686 -2.2853 -2.29506 -2.47866 -2.43244 -2.38068 -2.65022 -2.70816 -2.69547 -2.6053
          -2.75406 -2.63687 -2.5926 -2.66226 -2.61604 -2.84586 -2.79964 -2.74007 -2.4357 -2.39338 -2.49201 -2.44904
          -2.53498 -2.33771 -2.56037 -2.50503 -2.54898 -1.07631 -1.05742 -1.13262 -1.01966 -1.11309 -1.09387 -1.15216
          -1.09486 -1.17169 -1.00175 -0.946415 -0.984497 -0.929808 -0.874794 -1.03919 -1.22442 -1.16908 -1.20325 -1.2459
          -1.14856 -1.25794 -1.28008 -1.31263 -1.18959 -1.20978 -1.07209 -1.01284 -1.05483 -1.08967 -0.996235 -0.937315
          -1.11342 -1.13166 -1.02945 -1.04573 -0.968576 -0.984207 -1.00016 -0.952946 -0.963022 -0.979303 -0.906055 -0.921685
          -0.890424 -1.03692 -0.931422 -0.879988 -0.914164 -0.949005 -0.863381 -0.812272 -0.964948 -0.983182 -1.01573 -0.896594
          -0.912876 -0.843533 -0.859163 -0.827902 -0.830167 -0.846448 -0.781011 -0.878998 -0.796641 -0.765381 -0.81356 -0.896255
          -0.946388 -1.10754 -1.12773 -1.05448 -1.16027 -1.07401 -1.03494 -1.08703 -1.18144 -1.23548 -0.966588 -1.02063
          -1.00207 -1.54865 -1.48941 -1.52358 -1.57405 -1.46499 -1.40607 -1.58218 -1.60822 -1.64077 -1.51383 -1.53792
          -1.45295 -1.4764 -1.50016 -1.42951 -1.41615 -1.44025 -1.35919 -1.4728 -1.38263 -1.33575 -1.39174 -1.49787
          -1.55581 -1.75602 -1.78401 -1.69514 -1.81656 -1.72249 -1.75016 -1.6678 -1.72769 -1.84554 -1.90739 -1.87516
          -1.93766 -1.81266 -1.59944 -1.66129 -1.62516 -1.68766 -1.56266 -1.63492 -1.27164 -1.29182 -1.21077 -1.33219
          -1.2303 -1.25016 -1.19123 -1.25113 -1.35335 -1.4152 -1.37516 -1.43766 -1.31266 -1.10725 -1.1691 -1.12516
          -1.18766 -1.06266 -1.15054 -1.26739 -1.32534 -1.28921 -1.3478 -1.23061 -1.30287 -1.39273 -1.36994 -1.31037
          -0.59552 -0.536275 -0.586073 -0.605293 -0.527479 -0.468559 -0.644668 -0.655091 -0.703263 -0.545071 -0.553541 -0.484198
          -0.492018 -0.500163 -0.476378 -0.509887 -0.518357 -0.452919 -0.566529 -0.460739 -0.4451 -0.501091 -0.575976 -0.633919
          -0.78726 -0.799636 -0.726387 -0.847807 -0.738112 -0.750163 -0.714662 -0.774559 -0.86116 -0.923009 -0.875163 -0.937663
          -0.812663 -0.615065 -0.676914 -0.625163 -0.687663 -0.562663 -0.666165 -0.302881 -0.307447 -0.242008 -0.363429 -0.245923
          -0.250163 -0.238094 -0.29799 -0.36897 -0.430819 -0.375163 -0.437663 -0.312663 -0.122875 -0.184724 -0.125163 -0.187663
          -0.0626627 -0.181786 -0.345502 -0.403446 -0.351694 -0.410289 -0.2931 -0.396603 -0.423976 -0.416807 -0.357236 -0.685649
          -0.698025 -0.632587 -0.738386 -0.644312 -0.656363 -0.620862 -0.672948 -0.751738 -0.805776 -0.765741 -0.82043 -0.711052
          -0.536886 -0.590925 -0.546984 -0.601673 -0.492295 -0.580176 -0.697027 -0.74716 -0.71103 -0.761814 -0.660246 -0.732506
          -0.791122 -0.776142 -0.724382 -0.806449 -0.864392 -0.820452 -0.792771 -0.879046 -0.761857 -0.74883 -0.849738 -0.834759
          -0.908355 -0.893375 -0.833804 -0.623171 -0.612097 -0.679487 -0.667762 -0.691212 -0.556431 -0.779093 -0.723753 -0.736455
          -1.14234 -1.09872 -1.11727 -1.16774 -1.0743 -1.03101 -1.16025 -1.18629 -1.20322 -1.12314 -1.14723 -1.07789
          -1.10133 -1.1251 -1.05445 -1.02547 -1.04956 -0.984122 -1.06648 -1.00756 -0.96068 -1.00105 -1.09155 -1.13387
          -1.30284 -1.33083 -1.25759 -1.34776 -1.28493 -1.31261 -1.23024 -1.27451 -1.37673 -1.42296 -1.40636 -1.45324
          -1.35948 -1.19313 -1.23936 -1.21885 -1.26573 -1.17197 -1.21299 -0.94344 -0.963627 -0.898189 -0.988364 -0.917725
          -0.937587 -0.878653 -0.922927 -1.00953 -1.05575 -1.03134 -1.07822 -0.984464 -0.825923 -0.87215 -0.843831 -0.890709
          -0.796953 -0.85359 -0.923573 -0.965894 -0.945387 -0.988359 -0.902415 -0.943428 -1.03329 -1.0105 -0.96655 -1.07625
          -1.10424 -1.03881 -1.11336 -1.06615 -1.09383 -1.01146 -1.04792 -1.14233 -1.18075 -1.17196 -1.21102 -1.13289
          -0.989976 -1.02839 -1.0157 -1.05476 -0.97663 -1.00202 -1.02513 -1.05964 -1.05476 -1.08992 -1.0196 -1.02936
          -1.15047 -1.11987 -1.08373 -1.25953 -1.30185 -1.28916 -1.23023 -1.33213 -1.24619 -1.21754 -1.27158 -1.24098
          -1.39268 -1.36208 -1.31813 -1.1075 -1.08081 -1.1482 -1.12085 -1.17554 -1.04076 -1.20093 -1.16122 -1.18954
          -1.52943 -1.55742 -1.47636 -1.58216 -1.50371 -1.53138 -1.44902 -1.5011 -1.42167 -1.61114 -1.66517 -1.64076
          -1.69545 -1.58607 -1.39629 -1.45032 -1.42201 -1.37089 -1.4767 -1.36732 -1.34258 -1.42395 -1.39726 -1.49394
          -1.54407 -1.52356 -1.46464 -1.57434 -1.47278 -1.44413 -1.51379 -1.48319 -1.6349 -1.60429 -1.55254 -1.72834
          -1.78628 -1.75796 -1.69904 -1.81656 -1.69937 -1.67072 -1.756 -1.7254 -1.87711 -1.84651 -1.78694 -1.52944
          -1.50274 -1.58575 -1.55841 -1.6131 -1.44708 -1.66974 -1.6144 -1.64272 -1.09548 -1.14562 -1.1173 -1.07399
          -1.16808 -1.21854 -1.06651 -1.04568 -1.12315 -1.10036 -1.17165 -1.14821 -1.1951 -1.21301 -1.19022 -1.26542
          -1.24198 -1.28886 -1.13846 -0.927828 -0.908943 -0.976333 -0.956797 -0.995869 -0.861089 -1.05251 -1.00498 -1.02549
          -1.31847 -1.29177 -1.36698 -1.26964 -1.33963 -1.39432 -1.34484 -1.24392 -1.19639 -1.43533 -1.38781 -1.41613
          -1.3455 -1.29406 -1.32043 -1.26965 -1.37121 -1.31848 -1.22081 -1.2449 -1.29471 1.29539 1.24525 1.32043
          1.27002 1.26964 1.21918 1.37123 1.34521 1.42202 1.22086 1.19679 1.17234 1.14892 1.12518 1.19576
          1.31843 1.29436 1.26601 1.37117 1.24259 1.28942 1.34282 1.31284 1.34613 1.39757 1.41622 1.38825
          1.36771 1.46507 1.34039 1.31274 1.39503 1.44452 1.43612 1.48366 1.40652 1.45341 1.50063 1.35963
          1.24465 1.29219 1.21896 1.26585 1.17207 1.31854 1.0255 1.00534 0.976987 1.07434 0.957474 0.937635
          0.996501 1.04599 1.01601 1.0532 1.10074 1.03141 1.07829 0.984521 0.861751 0.909287 0.843864 0.879313
          0.890749 0.79698 0.813891 0.750095 0.927825 0.946687 1.13906 1.1905 1.11727 1.16052 1.16806 1.06648
          1.08729 1.21294 1.23571 1.12318 1.14594 1.09613 1.64258 1.61461 1.58626 1.69923 1.55894 1.5313
          1.61358 1.67087 1.64089 1.67028 1.72563 1.64069 1.69539 1.75041 1.58599 1.4476 1.50294 1.42191
          1.47296 1.4766 1.36721 1.39193 1.52929 1.55595 1.78736 1.84661 1.75777 1.81663 1.81636 1.87529
          1.69917 1.72778 1.87685 1.90742 1.93773 1.96894 1.99984 1.90651 1.75588 1.78645 1.81285 1.84407
          1.78163 1.72882 1.5532 1.60465 1.52361 1.58248 1.5744 1.62553 1.47281 1.50143 1.6349 1.66547
          1.68797 1.71919 1.65675 1.51391 1.54448 1.56308 1.5943 1.53186 1.49466 1.42391 1.45058 1.47698
          1.5043 1.44967 1.39686 1.61175 1.5577 1.5294 1.18984 1.16187 1.14913 1.23088 1.12181 1.09416
          1.17645 1.21814 1.20378 1.20193 1.24166 1.17233 1.21141 1.25082 1.13324 1.04169 1.08142 1.016
          1.06706 1.05508 0.976914 1.00163 0.937833 1.10777 1.13444 1.31903 1.36267 1.28943 1.3483 1.33242
          1.37573 1.24644 1.27506 1.39292 1.42349 1.43818 1.46941 1.40696 1.27192 1.30249 1.31328 1.34451
          1.28205 1.26048 1.08482 1.12065 1.05522 1.1141 1.0904 1.12591 1.02004 1.04867 0.984862 1.15091
          1.18149 1.18837 1.2196 1.15714 1.0299 1.06047 1.06345 0.996667 1.09468 1.03222 0.999643 1.00099
          1.02627 0.99174 1.00238 1.02905 1.03984 0.965251 1.06716 1.01251 0.976032 0.990948 0.952518 1.14338
          1.10494 1.07664 0.967335 1.01097 0.945543 0.988801 0.988526 1.03183 0.90256 0.923376 0.859578 1.03341
          1.05618 1.07867 1.10209 1.05525 0.943641 0.966409 0.984997 0.902609 1.00842 0.961578 0.921197 0.924402
          0.88207 0.853674 0.872537 0.898932 0.80874 0.918446 0.879418 0.835135 0.826628 0.780394 1.01027 0.964031
          0.943541 1.21316 1.23983 1.25842 1.16822 1.28574 1.2311 1.18681 1.19392 1.14768 1.37757 1.33133
          1.30304 1.09243 1.0501 1.11748 1.07449 1.16047 1.0257 1.12328 1.09921 1.14318 0.736254 0.723899
          0.679936 0.792898 0.668231 0.656201 0.69164 0.748935 0.703345 0.779567 0.834909 0.765585 0.820277 0.875294
          0.710893 0.556896 0.612238 0.546818 0.566649 0.60151 0.492127 0.501229 0.437436 0.622967 0.634021 0.834193
          0.89344 0.820211 0.84785 0.878807 0.937729 0.761615 0.774621 0.908072 0.92303 0.968946 0.984554 0.999837
          0.953337 0.849542 0.8645 0.906511 0.92212 0.890903 0.80688 0.724939 0.776378 0.710957 0.738596 0.761745
          0.812858 0.660169 0.673176 0.609382 0.791011 0.805969 0.844076 0.859685 0.828467 0.732478 0.747437 0.78164
          0.683642 0.797249 0.76603 0.717845 0.697625 0.647488 0.580052 0.591106 0.633117 0.527313 0.644822 0.621412
          0.569324 0.537391 0.483351 0.752253 0.698212 0.685531 0.357619 0.416865 0.351446 0.363467 0.410042 0.468962
          0.292851 0.298048 0.234256 0.423689 0.430839 0.484562 0.492363 0.499837 0.476762 0.396394 0.403543 0.453362
          0.33975 0.461162 0.445562 0.389569 0.345924 0.287979 0.181499 0.184743 0.242372 0.120951 0.246267 0.249837
          0.238476 0.17858 0.12322 0.0613705 0.124837 0.0623373 0.187337 0.369315 0.307466 0.374837 0.312337 0.437337
          0.302594 0.665881 0.676934 0.726754 0.605333 0.738458 0.749837 0.715049 0.655152 0.61541 0.553561 0.624837
          0.562337 0.687337 0.861506 0.799657 0.874837 0.812337 0.937337 0.786976 0.576401 0.518456 0.585828 0.527232
          0.644424 0.50968 0.544785 0.536334 0.595906 1.31077 1.37002 1.28898 1.33224 1.34758 1.4065 1.23039
          1.2512 1.17179 1.39246 1.41522 1.45333 1.47675 1.49984 1.42992 1.3027 1.32547 1.35967 1.24606
          1.38309 1.33626 1.28026 1.26784 1.2099 1.15027 1.16913 1.21114 1.08972 1.23065 1.24984 1.19163
          1.13173 1.1076 1.04575 1.12484 1.06234 1.18734 1.3537 1.29185 1.37484 1.31234 1.43734 1.27136
          1.63465 1.66132 1.69553 1.57411 1.72285 1.74984 1.66821 1.60831 1.5998 1.53795 1.62484 1.56234
          1.68734 1.84589 1.78404 1.87484 1.81234 1.93734 1.75575 1.49833 1.44038 1.52337 1.46477 1.58197
          1.41599 1.51356 1.48949 1.54906 1.00197 1.02084 1.05504 0.949232 1.07455 1.09374 1.03553 0.983436
          0.967118 0.913076 0.984354 0.929661 1.03905 1.18199 1.12794 1.20313 1.14843 1.25782 1.10746 0.896874
          0.846736 0.91411 0.863321 0.964899 0.830151 0.896492 0.880232 0.931997 1.03736 0.979415 1.0546 1.0198
          0.996 1.11319 1.09498 0.962831 0.946571 1.02917 1.01291 1.07248 1.18941 1.16925 1.13309 1.11358
          1.1526 1.22492 1.00224 1.05758 1.07612 2.54903 2.50547 2.49269 2.6057 2.44978 2.40654 2.53561
          2.59292 2.57852 2.56116 2.61653 2.51597 2.5707 2.62575 2.46125 2.33841 2.39377 2.29712 2.37938
          2.35182 2.24241 2.28273 2.1877 2.43571 2.47798 2.7406 2.79986 2.69542 2.78545 2.75403 2.81297
          2.63681 2.68102 2.84569 2.89184 2.90657 2.95337 2.99984 2.85977 2.66237 2.70852 2.71936 2.76616
          2.67256 2.65088 2.38167 2.43313 2.33649 2.42653 2.38734 2.43842 2.28568 2.32988 2.23486 2.47896
          2.52518 2.53205 2.57893 2.48516 2.2959 2.34202 2.34534 2.24673 2.39179 2.29862 2.24973 2.25259
          2.29198 2.24178 2.26793 2.31021 2.32102 2.21517 2.36394 2.2781 2.22599 2.25647 2.20241 2.47142
          2.41735 2.37346 2.26396 2.32321 2.22657 2.30103 2.28517 2.3441 2.16797 2.20438 2.10936 2.36125
          2.39962 2.42213 2.46115 2.49984 2.38311 2.20908 2.24745 2.26606 2.15243 2.30508 2.22704 2.17104
          2.18982 2.13187 2.11905 2.15352 2.17993 2.0585 2.21504 2.24984 2.14481 2.08491 2.09199 2.03014
          2.12484 2.06234 2.18734 2.33809 2.27624 2.37484 2.31234 2.43734 2.24015 2.60347 2.64573 2.66434
          2.54291 2.70725 2.74984 2.62143 2.56153 2.5842 2.52235 2.62484 2.56234 2.68734 2.83031 2.76846
          2.87484 2.81234 2.93734 2.72457 2.42034 2.36239 2.46098 2.40238 2.51959 2.32239 2.48236 2.44269
          2.50227 3.2175 3.27729 3.16555 3.26947 3.22906 3.29884 3.10608 3.15798 3.04714 3.32957 3.38335
          3.38975 3.44498 3.49995 3.33712 3.15633 3.18613 3.25434 3.05901 3.28539 3.22091 3.12757 3.18814
          3.11278 3.0541 3.08795 3.13795 3.14884 3.02737 3.19949 3.24983 3.0982 3.03824 3.07643 3.01457
          3.12484 3.06234 3.18734 3.32245 3.26069 3.37477 3.31232 3.43726 3.2091 3.67535 3.71166 3.77291
          3.57763 3.81006 3.84682 3.73473 3.63967 3.69673 3.6115 3.50457 3.63878 3.56328 3.74754 4.0027
          3.90656 4.04252 3.96227 3.94528 4.13893 4.09785 4.23483 3.86731 3.82855 3.47416 3.38028 3.50907
          3.43846 3.4138 3.60303 3.56671 3.3459 3.31221 3.4793 3.44703 3.5444 2.69247 2.73943 2.74844