<?xml version="1.0"?>
<VTKFile type="UnstructuredGrid" version="0.1" byte_order="LittleEndian">
  <UnstructuredGrid>
    <Piece NumberOfCells="32" NumberOfPoints="25">
      <PointData Vectors="Uh">
        <DataArray type="Float32" Name="Uh" NumberOfComponents="3" format="ascii">
          -0.432126 -0.372666 0 0.393284 0.0699295 0 0 0 0 -0.181259 -0.181259 0
          0 0 0 0 0 0 0 0 0 0.148328 0.148328 0
          0 0 0 0.470918 0.229005 0 0.407211 0.407211 0 -0.258096 0.0311538 0
          -0.176159 0.0941966 0 -0.008905 -0.008905 0 -0.350427 -0.259464 0 0.229005 0.470918 0
          0.0699295 0.393284 0 0.0311538 -0.258096 0 -0.259464 -0.350427 0 0 0 0
          0.0941966 -0.176159 0 -0.372666 -0.432126 0 0 0 0 0 0 0
          0 0 0
        </DataArray>
      </PointData>
      <Points>
        <DataArray type="Float32" Name="Coordinates" NumberOfComponents="3" format="ascii">
          0.75 0.5 0 0.75 0.25 0 1 0.5 0 0.5 0.5 0
          1 0.25 0 1 0 0 1 0.75 0 0.75 0.75 0
          1 1 0 0.5 0.25 0 0.25 0.25 0 0.5 0 0
          0.25 0 0 0 0 0 0.75 0 0 0.25 0.5 0
          0.25 0.75 0 0 0.5 0 0 0.75 0 0 1 0
          0 0.25 0 0.5 0.75 0 0.5 1 0 0.75 1 0
          0.25 1 0
        </DataArray>
      </Points>
      <Cells>
        <DataArray type="Int32" Name="connectivity" NumberOfComponents="1" format="ascii">
          0 1 2 0 3 1 4 1 5 4 2 1
          6 7 2 6 8 7 0 7 3 0 2 7
          9 10 11 9 3 10 12 10 13 12 11 10
          14 1 11 14 5 1 9 1 3 9 11 1
          15 16 17 15 3 16 18 16 19 18 17 16
          20 10 17 20 13 10 15 10 3 15 17 10
          21 7 22 21 3 7 23 7 8 23 22 7
          24 16 22 24 19 16 21 16 3 21 22 16
        </DataArray>
        <DataArray type="Int32" Name="offsets" NumberOfComponents="1" format="ascii">
          3 6 9 12 15 18 21 24 27 30 33 36
          39 42 45 48 51 54 57 60 63 66 69 72
          75 78 81 84 87 90 93 96
        </DataArray>
        <DataArray type="UInt8" Name="types" NumberOfComponents="1" format="ascii">
          5 5 5 5 5 5 5 5 5 5 5 5
          5 5 5 5 5 5 5 5 5 5 5 5
          5 5 5 5 5 5 5 5
        </DataArray>
      </Cells>
    </Piece>
  </UnstructuredGrid>
</VTKFile>
