<?xml version="1.0"?>
<VTKFile type="UnstructuredGrid" version="0.1" byte_order="LittleEndian">
  <UnstructuredGrid>
    <Piece NumberOfCells="32" NumberOfPoints="25">
      <PointData Vectors="Uh">
        <DataArray type="Float32" Name="Uh" NumberOfComponents="3" format="ascii">
          -0.000806546 0.0375 0 7.75323e-05 0.0192881 0 -0.00035718 0.05 0 1.57175e-05 0.025 0
          -0.000460958 0.0267276 0 0.0014149 0.00375112 0 -0.000460958 0.0732724 0 7.75323e-05 0.0557119 0
          0.0014149 0.0962489 0 -0.000410058 0.0125684 0 0.000437753 0.00617827 0 0.000801594 -2.38653e-05 0
          -0.000308212 -4.55506e-05 0 0 0 0 0.000671943 0.000977752 0 -0.000568405 0.0125 0
          0.000437753 0.0188217 0 0 0 0 0 0 0 0 0 0
          0 0 0 -0.000410058 0.0374316 0 0.000801594 0.0500239 0 0.000671943 0.0740222 0
          -0.000308212 0.0250456 0
        </DataArray>
      </PointData>
      <Points>
        <DataArray type="Float32" Name="Coordinates" NumberOfComponents="3" format="ascii">
          0.75 0.5 0 0.75 0.25 0 1 0.5 0 0.5 0.5 0
          1 0.25 0 1 0 0 1 0.75 0 0.75 0.75 0
          1 1 0 0.5 0.25 0 0.25 0.25 0 0.5 0 0
          0.25 0 0 0 0 0 0.75 0 0 0.25 0.5 0
          0.25 0.75 0 0 0.5 0 0 0.75 0 0 1 0
          0 0.25 0 0.5 0.75 0 0.5 1 0 0.75 1 0
          0.25 1 0
        </DataArray>
      </Points>
      <Cells>
        <DataArray type="Int32" Name="connectivity" NumberOfComponents="1" format="ascii">
          0 1 2 0 3 1 4 1 5 4 2 1
          6 7 2 6 8 7 0 7 3 0 2 7
          9 10 11 9 3 10 12 10 13 12 11 10
          14 1 11 14 5 1 9 1 3 9 11 1
          15 16 17 15 3 16 18 16 19 18 17 16
          20 10 17 20 13 10 15 10 3 15 17 10
          21 7 22 21 3 7 23 7 8 23 22 7
          24 16 22 24 19 16 21 16 3 21 22 16
        </DataArray>
        <DataArray type="Int32" Name="offsets" NumberOfComponents="1" format="ascii">
          3 6 9 12 15 18 21 24 27 30 33 36
          39 42 45 48 51 54 57 60 63 66 69 72
          75 78 81 84 87 90 93 96
        </DataArray>
        <DataArray type="UInt8" Name="types" NumberOfComponents="1" format="ascii">
          5 5 5 5 5 5 5 5 5 5 5 5
          5 5 5 5 5 5 5 5 5 5 5 5
          5 5 5 5 5 5 5 5
        </DataArray>
      </Cells>
    </Piece>
  </UnstructuredGrid>
</VTKFile>
