<?xml version="1.0"?>
<VTKFile type="UnstructuredGrid" version="0.1" byte_order="LittleEndian">
  <UnstructuredGrid>
    <Piece NumberOfCells="1600" NumberOfPoints="1005">
      <PointData Vectors="Uh">
        <DataArray type="Float32" Name="Uh" NumberOfComponents="3" format="ascii">
          -1.41204e-10 0.000483695 0 0.000318977 0.000475072 0 -1.86952e-10 0.000836105 0 0 0.000183006 0
          0.000425749 0.000880427 0 0.00085495 0.000907123 0 -0.00042575 0.000880427 0 -0.000318977 0.000475072 0
          -0.000854951 0.000907123 0 0.00020938 0.000229283 0 9.63019e-05 3.61292e-05 0 0.000429205 0.00025801 0
          0.000217279 0.000113001 0 0 0 0 0.000642442 0.000555166 0 0 4.99746e-05 0
          -9.6302e-05 3.61292e-05 0 0 0 0 0 0 0 0 0 0
          0 0 0 -0.00020938 0.000229283 0 -0.000429206 0.000258011 0 -0.000642442 0.000555166 0
          -0.000217279 0.000113001 0 -2.97875e-10 0.00262957 0 0.000738818 0.00262102 0 -3.26479e-10 0.00339971 0
          -2.62562e-10 0.0019107 0 0.000840831 0.00344203 0 0.00168431 0.00346743 0 -0.000840831 0.00344203 0
          -0.000738818 0.00262102 0 -0.00168431 0.00346743 0 0.000635549 0.00195392 0 0.000531371 0.00133865 0
          0.00127383 0.00197987 0 0.00106523 0.00141722 0 0.00147995 0.00269799 0 -2.2647e-10 0.00134734 0
          -0.000531372 0.00133865 0 -0.00063555 0.00195392 0 -0.00127383 0.00197987 0 -0.00147995 0.00269799 0
          -0.00106523 0.00141722 0 -4.02885e-10 0.00641671 0 0.00114089 0.00640852 0 -4.22982e-10 0.00758775 0
          -3.80806e-10 0.00529486 0 0.0012387 0.00762833 0 0.00248 0.00765267 0 -0.00123871 0.00762833 0
          -0.00114089 0.00640852 0 -0.00248 0.00765267 0 0.00104186 0.0053363 0 0.000941961 0.0043138 0
          0.00208634 0.00536117 0 0.0018862 0.00438918 0 0.00228404 0.00648233 0 -3.53954e-10 0.00432217 0
          -0.000941962 0.0043138 0 -0.00104186 0.0053363 0 -0.00208634 0.00536117 0 -0.00228404 0.00648233 0
          -0.0018862 0.00438918 0 -4.68352e-10 0.0117782 0 0.0015263 0.0117704 0 -4.7043e-10 0.0133335 0
          -4.55156e-10 0.0102701 0 0.00162 0.0133724 0 0.00324254 0.0133957 0 -0.00162 0.0133724 0
          -0.0015263 0.0117704 0 -0.00324254 0.0133957 0 0.0014314 0.0103098 0 0.00133566 0.0088968 0
          0.00286537 0.0103336 0 0.00267354 0.00896906 0 0.0030548 0.0118411 0 -4.34649e-10 0.00890483 0
          -0.00133566 0.0088968 0 -0.0014314 0.0103098 0 -0.00286537 0.0103336 0 -0.00305481 0.0118411 0
          -0.00267354 0.00896906 0 -4.60986e-10 0.0186482 0 0.00189539 0.0186406 0 -4.45928e-10 0.0205714 0
          -4.72419e-10 0.01677 0 0.00198508 0.0206086 0 0.00397264 0.020631 0 -0.00198508 0.0206086 0
          -0.0018954 0.0186406 0 -0.00397264 0.020631 0 0.00180455 0.016808 0 0.00171286 0.015021 0
          0.0036116 0.0168309 0 0.00342791 0.0150902 0 0.00379295 0.0187083 0 -4.73992e-10 0.0150287 0
          -0.00171286 0.015021 0 -0.00180455 0.016808 0 -0.0036116 0.0168309 0 -0.00379295 0.0187083 0
          -0.00342791 0.0150902 0 -3.74726e-10 0.026962 0 0.00224853 0.0269548 0 -3.45058e-10 0.0292373 0
          -4.04258e-10 0.0247298 0 0.00233429 0.0292729 0 0.004671 0.0292942 0 -0.00233429 0.0292729 0
          -0.00224853 0.0269548 0 -0.004671 0.0292942 0 0.00216164 0.0247662 0 0.00207394 0.0226212 0
          0.00432574 0.024788 0 0.00415001 0.0226874 0 0.00449918 0.0270195 0 -4.23792e-10 0.0226286 0
          -0.00207394 0.0226212 0 -0.00216164 0.0247662 0 -0.00432574 0.024788 0 -0.00449918 0.0270195 0
          -0.00415001 0.0226874 0 -2.38256e-10 0.0366566 0 0.00258607 0.0366497 0 -2.06761e-10 0.0392683 0
          -2.73683e-10 0.034086 0 0.00266797 0.0393023 0 0.00533832 0.0393227 0 -0.00266798 0.0393023 0
          -0.00258607 0.0366497 0 -0.00533832 0.0393227 0 0.00250305 0.0341208 0 0.00241923 0.0316336 0
          0.00500849 0.0341417 0 0.00484055 0.0316968 0 0.0051742 0.0367116 0 -3.0923e-10 0.0316406 0
          -0.00241923 0.0316336 0 -0.00250305 0.0341208 0 -0.00500849 0.0341417 0 -0.0051742 0.0367116 0
          -0.00484055 0.0316968 0 -1.03352e-10 0.0476702 0 0.00290835 0.0476637 0 0 0.0506032 0
          -1.3665e-10 0.0447766 0 0.0029865 0.0506356 0 0.00597531 0.0506551 0 -0.0029865 0.0506356 0
          -0.00290835 0.0476637 0 -0.00597532 0.0506551 0 0.00282911 0.0448098 0 0.00274909 0.0419956 0
          0.00566056 0.0448297 0 0.00550023 0.042056 0 0.00581872 0.0477227 0 -1.71008e-10 0.0420023 0
          -0.00274909 0.0419956 0 -0.00282911 0.0448098 0 -0.00566056 0.0448297 0 -0.00581872 0.0477227 0
          -0.00550023 0.042056 0 0 0.0599426 0 0.00321573 0.0599364 0 0 0.063182 0
          0 0.0567408 0 0.00329021 0.0632128 0 0.00658269 0.0632314 0 -0.00329021 0.0632128 0
          -0.00321573 0.0599364 0 -0.00658269 0.0632314 0 0.00314019 0.0567724 0 0.00306388 0.0536464 0
          0.00628266 0.0567914 0 0.00612975 0.053704 0 0.00643343 0.0599926 0 0 0.0536528 0
          -0.00306388 0.0536464 0 -0.00314019 0.0567724 0 -0.00628266 0.0567914 0 -0.00643343 0.0599926 0
          -0.00612975 0.053704 0 1.91895e-10 0.0734149 0 0.00350857 0.0734089 0 2.19033e-10 0.076946 0
          1.59584e-10 0.0699194 0 0.00357947 0.0769754 0 0.00716114 0.076993 0 -0.00357947 0.0769754 0
          -0.00350857 0.0734089 0 -0.00716114 0.076993 0 0.00343663 0.0699495 0 0.00336394 0.0665263 0
          0.00687549 0.0699676 0 0.00672984 0.0665812 0 0.00701905 0.0734625 0 1.18907e-10 0.0665324 0
          -0.00336394 0.0665263 0 -0.00343663 0.0699495 0 -0.00687549 0.0699676 0 -0.00701905 0.0734625 0
          -0.00672984 0.0665812 0 2.91142e-10 0.0880295 0 0.00378721 0.0880238 0 3.06602e-10 0.0918383 0
          2.69782e-10 0.0842546 0 0.00385462 0.0918662 0 0.00771139 0.091883 0 -0.00385462 0.0918662 0
          -0.00378721 0.0880238 0 -0.00771139 0.091883 0 0.00371879 0.0842833 0 0.00364964 0.0805771 0
          0.00743975 0.0843005 0 0.00730118 0.0806294 0 0.00757629 0.0880748 0 2.4276e-10 0.0805829 0
          -0.00364964 0.0805771 0 -0.00371879 0.0842833 0 -0.00743975 0.0843005 0 -0.00757629 0.0880748 0
          -0.00730118 0.0806294 0 3.25198e-10 0.10373 0 0.00405201 0.103725 0 3.24999e-10 0.107803 0
          3.21717e-10 0.09969 0 0.00411602 0.10783 0 0.00823412 0.107845 0 -0.00411601 0.10783 0
          -0.00405201 0.103725 0 -0.00823412 0.107845 0 0.00398701 0.0997172 0 0.00392131 0.0957421 0
          0.00797615 0.0997336 0 0.00784448 0.0957917 0 0.00810584 0.103773 0 3.12574e-10 0.0957476 0
          -0.00392131 0.0957421 0 -0.00398701 0.0997172 0 -0.00797615 0.0997336 0 -0.00810584 0.103773 0
          -0.00784448 0.0957917 0 3.34181e-10 0.120463 0 0.00430332 0.120458 0 3.27451e-10 0.124786 0
          3.31357e-10 0.116171 0 0.00436401 0.124811 0 0.00873006 0.124826 0 -0.00436401 0.124811 0
          -0.00430332 0.120458 0 -0.00873006 0.124826 0 0.00424167 0.116196 0 0.00417933 0.111966 0
          0.0084854 0.116212 0 0.00836045 0.112013 0 0.00860841 0.120504 0 3.267e-10 0.111971 0
          -0.00417932 0.111966 0 -0.00424167 0.116196 0 -0.0084854 0.116212 0 -0.00860841 0.120504 0
          -0.00836045 0.112013 0 3.10439e-10 0.138174 0 0.00454149 0.138169 0 2.98448e-10 0.142734 0
          3.18639e-10 0.133643 0 0.00459896 0.142758 0 0.0091999 0.142772 0 -0.00459896 0.142758 0
          -0.00454149 0.138169 0 -0.0091999 0.142772 0 0.00448309 0.133667 0 0.00442402 0.129194 0
          0.0089682 0.133682 0 0.0088498 0.129239 0 0.00908471 0.138213 0 3.20777e-10 0.129199 0
          -0.00442402 0.129194 0 -0.00448309 0.133667 0 -0.0089682 0.133682 0 -0.00908471 0.138213 0
          -0.0088498 0.129239 0 2.48126e-10 0.156811 0 0.00476688 0.156807 0 2.25355e-10 0.161596 0
          2.68897e-10 0.152054 0 0.00482121 0.161619 0 0.00964435 0.161632 0 -0.00482121 0.161619 0
          -0.00476688 0.156807 0 -0.00964435 0.161632 0 0.00471165 0.152077 0 0.00465576 0.147375 0
          0.00942525 0.152091 0 0.00931323 0.147418 0 0.00953545 0.156848 0 2.85868e-10 0.14738 0
          -0.00465576 0.147375 0 -0.00471165 0.152077 0 -0.00942525 0.152091 0 -0.00953545 0.156848 0
          -0.00931323 0.147418 0 1.57111e-10 0.176325 0 0.00497984 0.176321 0 1.35017e-10 0.181322 0
          1.80036e-10 0.171354 0 0.00503112 0.181343 0 0.0100641 0.181356 0 -0.00503112 0.181343 0
          -0.00497984 0.176321 0 -0.0100641 0.181356 0 0.00492769 0.171376 0 0.00487489 0.166457 0
          0.00985727 0.171389 0 0.00975145 0.166497 0 0.00996132 0.17636 0 2.01071e-10 0.166462 0
          -0.00487489 0.166457 0 -0.00492768 0.171376 0 -0.00985727 0.171389 0 -0.00996132 0.17636 0
          -0.00975145 0.166497 0 0 0.196666 0 0.00518072 0.196662 0 0 0.201863 0
          0 0.191493 0 0.00522904 0.201883 0 0.0104599 0.201895 0 -0.00522904 0.201883 0
          -0.00518072 0.196662 0 -0.0104599 0.201895 0 0.00513155 0.191514 0 0.00508177 0.186391 0
          0.010265 0.191526 0 0.0101652 0.186428 0 0.010363 0.196698 0 1.11427e-10 0.186395 0
          -0.00508177 0.186391 0 -0.00513155 0.191514 0 -0.010265 0.191526 0 -0.010363 0.196698 0
          -0.0101652 0.186428 0 0 0.217786 0 0.00536988 0.217782 0 0 0.223171 0
          0 0.212424 0 0.00541532 0.22319 0 0.0108324 0.223201 0 -0.00541532 0.22319 0
          -0.00536988 0.217782 0 -0.0108324 0.223201 0 0.00532361 0.212443 0 0.00527674 0.207127 0
          0.010649 0.212455 0 0.0105551 0.207163 0 0.0107413 0.217817 0 0 0.207131 0
          -0.00527674 0.207127 0 -0.00532361 0.212443 0 -0.010649 0.212455 0 -0.0107413 0.217817 0
          -0.0105551 0.207163 0 0 0.239639 0 0.00554766 0.239636 0 -1.02818e-10 0.245202 0
          0 0.234099 0 0.00559031 0.245219 0 0.0111823 0.24523 0 -0.00559031 0.245219 0
          -0.00554766 0.239636 0 -0.0111823 0.24523 0 0.0055042 0.234117 0 0.00546017 0.22862 0
          0.0110101 0.234128 0 0.0109219 0.228654 0 0.0110968 0.239668 0 0 0.228624 0
          -0.00546017 0.22862 0 -0.0055042 0.234117 0 -0.0110101 0.234128 0 -0.0110968 0.239668 0
          -0.0109219 0.228654 0 -1.71573e-10 0.262181 0 0.00571442 0.262178 0 -1.90627e-10 0.267909 0
          -1.51304e-10 0.256474 0 0.00575437 0.267926 0 0.0115104 0.267936 0 -0.00575437 0.267926 0
          -0.00571442 0.262178 0 -0.0115104 0.267936 0 0.00567369 0.256491 0 0.00563239 0.250824 0
          0.0113491 0.256501 0 0.0112663 0.250855 0 0.0114303 0.262208 0 -1.30612e-10 0.250827 0
          -0.00563239 0.250824 0 -0.00567369 0.256491 0 -0.0113491 0.256501 0 -0.0114303 0.262208 0
          -0.0112663 0.250855 0 -2.31141e-10 0.285369 0 0.00587051 0.285365 0 -2.50803e-10 0.291252 0
          -2.17923e-10 0.279504 0 0.00590786 0.291267 0 0.0118173 0.291277 0 -0.00590786 0.291267 0
          -0.00587051 0.285365 0 -0.0118173 0.291277 0 0.00583242 0.27952 0 0.00579378 0.273694 0
          0.0116665 0.27953 0 0.011589 0.273723 0 0.0117424 0.285394 0 -2.04416e-10 0.273697 0
          -0.00579378 0.273694 0 -0.00583242 0.27952 0 -0.0116665 0.27953 0 -0.0117424 0.285394 0
          -0.011589 0.273723 0 -2.92801e-10 0.309159 0 0.00601629 0.309156 0 -3.07961e-10 0.315187 0
          -2.75474e-10 0.303148 0 0.00605112 0.315202 0 0.0121038 0.31521 0 -0.00605112 0.315202 0
          -0.00601629 0.309156 0 -0.0121038 0.31521 0 0.00598074 0.303163 0 0.00594467 0.297188 0
          0.0119631 0.303172 0 0.0118907 0.297215 0 0.0120339 0.309182 0 -2.65683e-10 0.297191 0
          -0.00594467 0.297188 0 -0.00598074 0.303163 0 -0.0119631 0.303172 0 -0.0120339 0.309182 0
          -0.0118907 0.297215 0 -3.65583e-10 0.333512 0 0.00615211 0.333509 0 -3.82126e-10 0.339675 0
          -3.47423e-10 0.327365 0 0.0061845 0.339689 0 0.0123705 0.339697 0 -0.0061845 0.339689 0
          -0.00615211 0.333509 0 -0.0123705 0.339697 0 0.00611902 0.327379 0 0.00608542 0.321265 0
          0.0122396 0.327387 0 0.0121722 0.32129 0 0.0123055 0.333534 0 -3.26338e-10 0.321267 0
          -0.00608542 0.321265 0 -0.00611902 0.327379 0 -0.0122396 0.327387 0 -0.0123055 0.333534 0
          -0.0121722 0.32129 0 -4.19201e-10 0.358388 0 0.00627832 0.358386 0 -4.31962e-10 0.364677 0
          -4.07549e-10 0.352114 0 0.00630836 0.36469 0 0.0126182 0.364697 0 -0.00630836 0.36469 0
          -0.00627832 0.358386 0 -0.0126182 0.364697 0 0.0062476 0.352127 0 0.00621639 0.345884 0
          0.0124967 0.352135 0 0.0124341 0.345908 0 0.0125579 0.358408 0 -3.99268e-10 0.345887 0
          -0.00621639 0.345884 0 -0.0062476 0.352127 0 -0.0124967 0.352135 0 -0.0125579 0.358408 0
          -0.0124341 0.345908 0 -4.25187e-10 0.38375 0 0.00639527 0.383748 0 -4.24675e-10 0.390156 0
          -4.30964e-10 0.377359 0 0.00642305 0.390167 0 0.0128475 0.390174 0 -0.00642305 0.390167 0
          -0.00639527 0.383748 0 -0.0128475 0.390174 0 0.00636683 0.377371 0 0.00633793 0.371008 0
          0.0127351 0.377378 0 0.0126771 0.37103 0 0.0127917 0.383769 0 -4.331e-10 0.371011 0
          -0.00633793 0.371008 0 -0.00636683 0.377371 0 -0.0127351 0.377378 0 -0.0127917 0.383769 0
          -0.0126771 0.37103 0 -3.98604e-10 0.409562 0 0.00650331 0.40956 0 -3.90483e-10 0.416074 0
          -4.10666e-10 0.403062 0 0.00652893 0.416085 0 0.0130592 0.416091 0 -0.00652893 0.416085 0
          -0.00650331 0.40956 0 -0.0130592 0.416091 0 0.00647707 0.403073 0 0.00645038 0.3966 0
          0.0129555 0.40308 0 0.0129019 0.39662 0 0.0130078 0.409579 0 -4.21368e-10 0.396602 0
          -0.00645038 0.3966 0 -0.00647707 0.403073 0 -0.0129555 0.40308 0 -0.0130078 0.409579 0
          -0.0129019 0.39662 0 -3.41063e-10 0.435788 0 0.00660281 0.435786 0 -3.22655e-10 0.442399 0
          -3.59559e-10 0.429188 0 0.00662634 0.442409 0 0.013254 0.442415 0 -0.00662634 0.442409 0
          -0.00660281 0.435786 0 -0.013254 0.442415 0 0.00657867 0.429198 0 0.00655411 0.422623 0
          0.0131586 0.429204 0 0.0131093 0.422642 0 0.0132067 0.435804 0 -3.75847e-10 0.422625 0
          -0.00655411 0.422623 0 -0.00657867 0.429198 0 -0.0131586 0.429204 0 -0.0132067 0.435804 0
          -0.0131093 0.422642 0 -2.17022e-10 0.462395 0 0.0066941 0.462393 0 -1.75266e-10 0.469097 0
          -2.60755e-10 0.455704 0 0.00671564 0.469106 0 0.0134325 0.469111 0 -0.00671564 0.469106 0
          -0.0066941 0.462393 0 -0.0134325 0.469111 0 0.00667198 0.455713 0 0.00664946 0.449044 0
          0.0133452 0.455718 0 0.0133 0.449061 0 0.0133893 0.462409 0 -2.90069e-10 0.449046 0
          -0.00664946 0.449044 0 -0.00667198 0.455713 0 -0.0133452 0.455718 0 -0.0133893 0.462409 0
          -0.0133 0.449061 0 0 0.489351 0 0.00677755 0.489349 0 0 0.496136 0
          0 0.482576 0 0.00679718 0.496144 0 0.0135955 0.496149 0 -0.00679718 0.496144 0
          -0.00677755 0.489349 0 -0.0135955 0.496149 0 0.00675736 0.482584 0 0.00673678 0.475829 0
          0.0135159 0.482589 0 0.0134746 0.475845 0 0.0135561 0.489364 0 -1.26117e-10 0.475831 0
          -0.00673678 0.475829 0 -0.00675736 0.482584 0 -0.0135159 0.482589 0 -0.0135561 0.489364 0
          -0.0134746 0.475845 0 1.91558e-10 0.516625 0 0.0068535 0.516623 0 2.48701e-10 0.523485 0
          1.3777e-10 0.509774 0 0.00687132 0.523493 0 0.0137437 0.523497 0 -0.00687132 0.523493 0
          -0.0068535 0.516623 0 -0.0137437 0.523497 0 0.00683516 0.509781 0 0.00681644 0.502948 0
          0.0136714 0.509786 0 0.0136339 0.502963 0 0.013708 0.516637 0 0 0.50295 0
          -0.00681644 0.502948 0 -0.00683516 0.509781 0 -0.0136714 0.509786 0 -0.013708 0.516637 0
          -0.0136339 0.502963 0 4.01236e-10 0.544188 0 0.00692231 0.544187 0 4.57901e-10 0.551117 0
          3.51544e-10 0.537267 0 0.0069384 0.551123 0 0.0138779 0.551127 0 -0.0069384 0.551123 0
          -0.00692231 0.544187 0 -0.0138779 0.551127 0 0.00690572 0.537274 0 0.00688878 0.530371 0
          0.0138125 0.537279 0 0.0137785 0.530384 0 0.0138455 0.544199 0 2.98418e-10 0.530372 0
          -0.00688878 0.530371 0 -0.00690572 0.537274 0 -0.0138125 0.537279 0 -0.0138455 0.544199 0
          -0.0137785 0.530384 0 5.99812e-10 0.572012 0 0.00698434 0.572011 0 6.53502e-10 0.579002 0
          5.52596e-10 0.565029 0 0.00699879 0.579008 0 0.0139986 0.579012 0 -0.00699879 0.579008 0
          -0.00698433 0.572011 0 -0.0139986 0.579012 0 0.00696941 0.565036 0 0.00695415 0.558068 0
          0.0139398 0.565039 0 0.0139092 0.558079 0 0.0139695 0.572022 0 5.09434e-10 0.558069 0
          -0.00695415 0.558068 0 -0.00696941 0.565036 0 -0.0139398 0.565039 0 -0.0139695 0.572022 0
          -0.0139092 0.558079 0 7.58878e-10 0.600071 0 0.00703992 0.60007 0 7.85264e-10 0.607116 0
          7.32454e-10 0.593032 0 0.00705283 0.607121 0 0.0141066 0.607125 0 -0.00705282 0.607121 0
          -0.00703992 0.60007 0 -0.0141066 0.607125 0 0.00702658 0.593038 0 0.00701291 0.586013 0
          0.0140541 0.593041 0 0.0140267 0.586023 0 0.0140807 0.60008 0 6.94166e-10 0.586014 0
          -0.00701291 0.586013 0 -0.00702658 0.593038 0 -0.0140541 0.593041 0 -0.0140807 0.60008 0
          -0.0140267 0.586023 0 8.10483e-10 0.628339 0 0.00708943 0.628338 0 8.09035e-10 0.635434 0
          8.12061e-10 0.621251 0 0.00710087 0.635438 0 0.0142026 0.635441 0 -0.00710087 0.635438 0
          -0.00708943 0.628338 0 -0.0142026 0.635441 0 0.00707757 0.621256 0 0.00706541 0.614179 0
          0.0141561 0.621259 0 0.0141316 0.614189 0 0.0141796 0.628347 0 8.03338e-10 0.614181 0
          -0.00706541 0.614179 0 -0.00707757 0.621256 0 -0.0141561 0.621259 0 -0.0141796 0.628347 0
          -0.0141316 0.614189 0 7.39889e-10 0.656794 0 0.0071332 0.656793 0 7.03722e-10 0.663931 0
          7.6436e-10 0.649661 0 0.00714327 0.663935 0 0.0142874 0.663938 0 -0.00714326 0.663935 0
          -0.0071332 0.656793 0 -0.0142874 0.663938 0 0.00712275 0.649666 0 0.00711201 0.642544 0
          0.0142464 0.649668 0 0.0142248 0.642552 0 0.0142671 0.656801 0 7.85545e-10 0.642545 0
          -0.00711201 0.642544 0 -0.00712275 0.649666 0 -0.0142464 0.649668 0 -0.0142671 0.656801 0
          -0.0142248 0.642552 0 5.67005e-10 0.685412 0 0.0071716 0.685411 0 5.13602e-10 0.692587 0
          6.15275e-10 0.678241 0 0.00718037 0.692591 0 0.0143615 0.692593 0 -0.00718037 0.692591 0
          -0.0071716 0.685411 0 -0.0143615 0.692593 0 0.00716246 0.678245 0 0.00715305 0.671083 0
          0.0143257 0.678247 0 0.0143068 0.67109 0 0.0143439 0.685418 0 6.65319e-10 0.671084 0
          -0.00715305 0.671083 0 -0.00716246 0.678245 0 -0.0143257 0.678247 0 -0.0143439 0.685418 0
          -0.0143068 0.67109 0 3.02238e-10 0.714173 0 0.00720497 0.714172 0 2.19829e-10 0.721382 0
          3.7696e-10 0.706968 0 0.00721254 0.721385 0 0.0144258 0.721386 0 -0.00721254 0.721385 0
          -0.00720497 0.714172 0 -0.0144258 0.721386 0 0.00719705 0.706972 0 0.00718889 0.699775 0
          0.0143949 0.706974 0 0.0143784 0.699781 0 0.0144106 0.714178 0 4.44171e-10 0.699776 0
          -0.00718889 0.699775 0 -0.00719705 0.706972 0 -0.0143949 0.706974 0 -0.0144106 0.714178 0
          -0.0143784 0.699781 0 0 0.743058 0 0.00723367 0.743057 0 -1.47119e-10 0.750295 0
          0 0.735824 0 0.00724013 0.750297 0 0.0144809 0.750299 0 -0.00724013 0.750297 0
          -0.00723367 0.743057 0 -0.0144809 0.750299 0 0.00722689 0.735827 0 0.00721988 0.728601 0
          0.0144545 0.735829 0 0.0144404 0.728606 0 0.0144679 0.743062 0 1.30852e-10 0.728601 0
          -0.00721988 0.728601 0 -0.00722689 0.735827 0 -0.0144545 0.735829 0 -0.0144679 0.743062 0
          -0.0144404 0.728606 0 -4.29628e-10 0.772048 0 0.00725804 0.772048 0 -5.21368e-10 0.779309 0
          -3.40119e-10 0.76479 0 0.00726349 0.779311 0 0.0145276 0.779312 0 -0.00726349 0.779311 0
          -0.00725805 0.772048 0 -0.0145276 0.779312 0 0.00725232 0.764792 0 0.00724637 0.75754 0
          0.0145053 0.764794 0 0.0144933 0.757545 0 0.0145166 0.772052 0 -2.43963e-10 0.757541 0
          -0.00724637 0.75754 0 -0.00725232 0.764792 0 -0.0145053 0.764794 0 -0.0145166 0.772052 0
          -0.0144933 0.757545 0 -7.52966e-10 0.801127 0 0.00727845 0.801127 0 -8.19704e-10 0.808408 0
          -6.82375e-10 0.793849 0 0.00728296 0.80841 0 0.0145665 0.808411 0 -0.00728296 0.80841 0
          -0.00727846 0.801127 0 -0.0145665 0.808411 0 0.00727369 0.793851 0 0.00726872 0.786577 0
          0.014548 0.793852 0 0.014538 0.786581 0 0.0145574 0.80113 0 -6.04084e-10 0.786577 0
          -0.00726872 0.786577 0 -0.00727369 0.793851 0 -0.014548 0.793852 0 -0.0145574 0.80113 0
          -0.014538 0.786581 0 -9.86208e-10 0.83028 0 0.00729525 0.83028 0 -1.02856e-09 0.837578 0
          -9.37003e-10 0.822985 0 0.00729891 0.837579 0 0.0145983 0.83758 0 -0.00729891 0.837579 0
          -0.00729525 0.83028 0 -0.0145983 0.83758 0 0.00729135 0.822987 0 0.00728728 0.815695 0
          0.0145832 0.822988 0 0.014575 0.815698 0 0.0145909 0.830283 0 -8.83174e-10 0.815695 0
          -0.00728728 0.815695 0 -0.00729136 0.822987 0 -0.0145832 0.822988 0 -0.0145909 0.830283 0
          -0.014575 0.815698 0 -1.0988e-09 0.859493 0 0.00730878 0.859493 0 -1.11041e-09 0.866804 0
          -1.09032e-09 0.852184 0 0.00731168 0.866805 0 0.0146238 0.866806 0 -0.00731169 0.866805 0
          -0.00730879 0.859493 0 -0.0146238 0.866806 0 0.00730567 0.852186 0 0.0073024 0.84488 0
          0.0146118 0.852187 0 0.0146052 0.844882 0 0.014618 0.859495 0 -1.06382e-09 0.84488 0
          -0.0073024 0.84488 0 -0.00730567 0.852186 0 -0.0146118 0.852187 0 -0.014618 0.859495 0
          -0.0146052 0.844882 0 -1.05518e-09 0.888754 0 0.00731941 0.888754 0 -1.0185e-09 0.896075 0
          -1.08877e-09 0.881435 0 0.00732164 0.896076 0 0.0146437 0.896077 0 -0.00732164 0.896076 0
          -0.00731941 0.888754 0 -0.0146437 0.896077 0 0.00731699 0.881436 0 0.00731444 0.874118 0
          0.0146344 0.881436 0 0.0146292 0.87412 0 0.0146392 0.888756 0 -1.10579e-09 0.874119 0
          -0.00731444 0.874118 0 -0.00731699 0.881436 0 -0.0146344 0.881436 0 -0.0146392 0.888756 0
          -0.0146292 0.87412 0 -8.32046e-10 0.918052 0 0.00732748 0.918052 0 -7.54256e-10 0.925381 0
          -9.05264e-10 0.910724 0 0.00732912 0.925381 0 0.0146586 0.925382 0 -0.00732913 0.925381 0
          -0.00732748 0.918052 0 -0.0146586 0.925382 0 0.00732567 0.910725 0 0.00732374 0.903399 0
          0.0146517 0.910725 0 0.0146478 0.903401 0 0.0146553 0.918053 0 -9.71835e-10 0.903399 0
          -0.00732374 0.903399 0 -0.00732567 0.910725 0 -0.0146517 0.910725 0 -0.0146553 0.918053 0
          -0.0146478 0.903401 0 -4.73803e-10 0.947377 0 0.00733334 0.947377 0 -3.80236e-10 0.954711 0
          -5.73531e-10 0.940043 0 0.0073345 0.954712 0 0.0146693 0.954712 0 -0.0073345 0.954712 0
          -0.00733334 0.947377 0 -0.0146693 0.954712 0 0.00733205 0.940044 0 0.00733066 0.932712 0
          0.0146644 0.940044 0 0.0146616 0.932713 0 0.0146669 0.947378 0 -6.70374e-10 0.932712 0
          -0.00733066 0.932712 0 -0.00733205 0.940044 0 -0.0146644 0.940044 0 -0.0146669 0.947378 0
          -0.0146616 0.932713 0 0 0.976721 0 0.00733735 0.976721 0 0 0.984059 0
          -1.62663e-10 0.969384 0 0.0073381 0.98406 0 0.0146764 0.98406 0 -0.0073381 0.98406 0
          -0.00733736 0.976721 0 -0.0146764 0.98406 0 0.0073365 0.969384 0 0.00733556 0.962047 0
          0.0146732 0.969384 0 0.0146713 0.962048 0 0.0146749 0.976722 0 -2.76605e-10 0.962047 0
          -0.00733556 0.962047 0 -0.0073365 0.969384 0 -0.0146732 0.969384 0 -0.0146749 0.976722 0
          -0.0146713 0.962048 0 4.11212e-10 1.00608 0 0.00733987 1.00608 0 5.26845e-10 1.01342 0
          2.93431e-10 0.998738 0 0.0073403 1.01342 0 0.0146808 1.01342 0 -0.0073403 1.01342 0
          -0.00733987 1.00608 0 -0.0146808 1.01342 0 0.00733936 0.998738 0 0.00733878 0.991398 0
          0.0146789 0.998738 0 0.0146777 0.991399 0 0.0146799 1.00608 0 1.76357e-10 0.991398 0
          -0.00733878 0.991398 0 -0.00733935 0.998738 0 -0.0146789 0.998738 0 -0.0146799 1.00608 0
          -0.0146777 0.991399 0 8.46176e-10 1.03544 0 0.00734124 1.03544 0 9.36604e-10 1.04278 0
          7.43167e-10 1.0281 0 0.00734144 1.04278 0 0.014683 1.04278 0 -0.00734144 1.04278 0
          -0.00734124 1.03544 0 -0.014683 1.04278 0 0.00734098 1.0281 0 0.00734067 1.02076 0
          0.0146821 1.0281 0 0.0146815 1.02076 0 0.0146826 1.03544 0 6.34183e-10 1.02076 0
          -0.00734067 1.02076 0 -0.00734098 1.0281 0 -0.0146821 1.0281 0 -0.0146826 1.03544 0
          -0.0146815 1.02076 0 1.16414e-09 1.06481 0 0.00734181 1.06481 0 1.2107e-09 1.07215 0
          1.09834e-09 1.05747 0 0.00734187 1.07215 0 0.0146838 1.07215 0 -0.00734187 1.07215 0
          -0.00734181 1.06481 0 -0.0146838 1.07215 0 0.00734172 1.05747 0 0.0073416 1.05012 0
          0.0146835 1.05747 0 0.0146833 1.05013 0 0.0146837 1.06481 0 1.02161e-09 1.05012 0
          -0.0073416 1.05012 0 -0.00734172 1.05747 0 -0.0146835 1.05747 0 -0.0146837 1.06481 0
          -0.0146833 1.05013 0 1.3019e-09 1.09418 0 0.00734194 1.09418 0 1.31274e-09 1.10152 0
          1.28232e-09 1.08683 0 0.00734195 1.10152 0 0.0146839 1.10152 0 -0.00734194 1.10152 0
          -0.00734194 1.09418 0 -0.0146839 1.10152 0 0.00734193 1.08683 0 0.00734191 1.07949 0
          0.0146839 1.08683 0 0.0146839 1.07949 0 0.0146839 1.09418 0 1.25095e-09 1.07949 0
          -0.00734191 1.07949 0 -0.00734193 1.08683 0 -0.0146839 1.08683 0 -0.0146839 1.09418 0
          -0.0146839 1.07949 0
        </DataArray>
      </PointData>
      <Points>
        <DataArray type="Float32" Name="Coordinates" NumberOfComponents="3" format="ascii">
          0.015 0 0 0.015 -0.005 0 0.02 0 0 0.01 0 0
          0.02 -0.005 0 0.02 -0.01 0 0.02 0.005 0 0.015 0.005 0
          0.02 0.01 0 0.01 -0.005 0 0.005 -0.005 0 0.01 -0.01 0
          0.005 -0.01 0 0 -0.01 0 0.015 -0.01 0 0.005 0 0
          0.005 0.005 0 0 0 0 0 0.005 0 0 0.01 0
          0 -0.005 0 0.01 0.005 0 0.01 0.01 0 0.015 0.01 0
          0.005 0.01 0 0.035 0 0 0.035 -0.005 0 0.04 0 0
          0.03 0 0 0.04 -0.005 0 0.04 -0.01 0 0.04 0.005 0
          0.035 0.005 0 0.04 0.01 0 0.03 -0.005 0 0.025 -0.005 0
          0.03 -0.01 0 0.025 -0.01 0 0.035 -0.01 0 0.025 0 0
          0.025 0.005 0 0.03 0.005 0 0.03 0.01 0 0.035 0.01 0
          0.025 0.01 0 0.055 0 0 0.055 -0.005 0 0.06 0 0
          0.05 0 0 0.06 -0.005 0 0.06 -0.01 0 0.06 0.005 0
          0.055 0.005 0 0.06 0.01 0 0.05 -0.005 0 0.045 -0.005 0
          0.05 -0.01 0 0.045 -0.01 0 0.055 -0.01 0 0.045 0 0
          0.045 0.005 0 0.05 0.005 0 0.05 0.01 0 0.055 0.01 0
          0.045 0.01 0 0.075 0 0 0.075 -0.005 0 0.08 0 0
          0.07 0 0 0.08 -0.005 0 0.08 -0.01 0 0.08 0.005 0
          0.075 0.005 0 0.08 0.01 0 0.07 -0.005 0 0.065 -0.005 0
          0.07 -0.01 0 0.065 -0.01 0 0.075 -0.01 0 0.065 0 0
          0.065 0.005 0 0.07 0.005 0 0.07 0.01 0 0.075 0.01 0
          0.065 0.01 0 0.095 0 0 0.095 -0.005 0 0.1 0 0
          0.09 0 0 0.1 -0.005 0 0.1 -0.01 0 0.1 0.005 0
          0.095 0.005 0 0.1 0.01 0 0.09 -0.005 0 0.085 -0.005 0
          0.09 -0.01 0 0.085 -0.01 0 0.095 -0.01 0 0.085 0 0
          0.085 0.005 0 0.09 0.005 0 0.09 0.01 0 0.095 0.01 0
          0.085 0.01 0 0.115 0 0 0.115 -0.005 0 0.12 0 0
          0.11 0 0 0.12 -0.005 0 0.12 -0.01 0 0.12 0.005 0
          0.115 0.005 0 0.12 0.01 0 0.11 -0.005 0 0.105 -0.005 0
          0.11 -0.01 0 0.105 -0.01 0 0.115 -0.01 0 0.105 0 0
          0.105 0.005 0 0.11 0.005 0 0.11 0.01 0 0.115 0.01 0
          0.105 0.01 0 0.135 0 0 0.135 -0.005 0 0.14 0 0
          0.13 0 0 0.14 -0.005 0 0.14 -0.01 0 0.14 0.005 0
          0.135 0.005 0 0.14 0.01 0 0.13 -0.005 0 0.125 -0.005 0
          0.13 -0.01 0 0.125 -0.01 0 0.135 -0.01 0 0.125 0 0
          0.125 0.005 0 0.13 0.005 0 0.13 0.01 0 0.135 0.01 0
          0.125 0.01 0 0.155 0 0 0.155 -0.005 0 0.16 0 0
          0.15 0 0 0.16 -0.005 0 0.16 -0.01 0 0.16 0.005 0
          0.155 0.005 0 0.16 0.01 0 0.15 -0.005 0 0.145 -0.005 0
          0.15 -0.01 0 0.145 -0.01 0 0.155 -0.01 0 0.145 0 0
          0.145 0.005 0 0.15 0.005 0 0.15 0.01 0 0.155 0.01 0
          0.145 0.01 0 0.175 0 0 0.175 -0.005 0 0.18 0 0
          0.17 0 0 0.18 -0.005 0 0.18 -0.01 0 0.18 0.005 0
          0.175 0.005 0 0.18 0.01 0 0.17 -0.005 0 0.165 -0.005 0
          0.17 -0.01 0 0.165 -0.01 0 0.175 -0.01 0 0.165 0 0
          0.165 0.005 0 0.17 0.005 0 0.17 0.01 0 0.175 0.01 0
          0.165 0.01 0 0.195 0 0 0.195 -0.005 0 0.2 0 0
          0.19 0 0 0.2 -0.005 0 0.2 -0.01 0 0.2 0.005 0
          0.195 0.005 0 0.2 0.01 0 0.19 -0.005 0 0.185 -0.005 0
          0.19 -0.01 0 0.185 -0.01 0 0.195 -0.01 0 0.185 0 0
          0.185 0.005 0 0.19 0.005 0 0.19 0.01 0 0.195 0.01 0
          0.185 0.01 0 0.215 0 0 0.215 -0.005 0 0.22 0 0
          0.21 0 0 0.22 -0.005 0 0.22 -0.01 0 0.22 0.005 0
          0.215 0.005 0 0.22 0.01 0 0.21 -0.005 0 0.205 -0.005 0
          0.21 -0.01 0 0.205 -0.01 0 0.215 -0.01 0 0.205 0 0
          0.205 0.005 0 0.21 0.005 0 0.21 0.01 0 0.215 0.01 0
          0.205 0.01 0 0.235 0 0 0.235 -0.005 0 0.24 0 0
          0.23 0 0 0.24 -0.005 0 0.24 -0.01 0 0.24 0.005 0
          0.235 0.005 0 0.24 0.01 0 0.23 -0.005 0 0.225 -0.005 0
          0.23 -0.01 0 0.225 -0.01 0 0.235 -0.01 0 0.225 0 0
          0.225 0.005 0 0.23 0.005 0 0.23 0.01 0 0.235 0.01 0
          0.225 0.01 0 0.255 0 0 0.255 -0.005 0 0.26 0 0
          0.25 0 0 0.26 -0.005 0 0.26 -0.01 0 0.26 0.005 0
          0.255 0.005 0 0.26 0.01 0 0.25 -0.005 0 0.245 -0.005 0
          0.25 -0.01 0 0.245 -0.01 0 0.255 -0.01 0 0.245 0 0
          0.245 0.005 0 0.25 0.005 0 0.25 0.01 0 0.255 0.01 0
          0.245 0.01 0 0.275 0 0 0.275 -0.005 0 0.28 0 0
          0.27 0 0 0.28 -0.005 0 0.28 -0.01 0 0.28 0.005 0
          0.275 0.005 0 0.28 0.01 0 0.27 -0.005 0 0.265 -0.005 0
          0.27 -0.01 0 0.265 -0.01 0 0.275 -0.01 0 0.265 0 0
          0.265 0.005 0 0.27 0.005 0 0.27 0.01 0 0.275 0.01 0
          0.265 0.01 0 0.295 0 0 0.295 -0.005 0 0.3 0 0
          0.29 0 0 0.3 -0.005 0 0.3 -0.01 0 0.3 0.005 0
          0.295 0.005 0 0.3 0.01 0 0.29 -0.005 0 0.285 -0.005 0
          0.29 -0.01 0 0.285 -0.01 0 0.295 -0.01 0 0.285 0 0
          0.285 0.005 0 0.29 0.005 0 0.29 0.01 0 0.295 0.01 0
          0.285 0.01 0 0.315 0 0 0.315 -0.005 0 0.32 0 0
          0.31 0 0 0.32 -0.005 0 0.32 -0.01 0 0.32 0.005 0
          0.315 0.005 0 0.32 0.01 0 0.31 -0.005 0 0.305 -0.005 0