<?xml version="1.0"?>
<VTKFile type="UnstructuredGrid" version="0.1" byte_order="LittleEndian">
  <UnstructuredGrid>
    <Piece NumberOfCells="128" NumberOfPoints="81">
      <PointData Vectors="Uh">
        <DataArray type="Float32" Name="Uh" NumberOfComponents="3" format="ascii">
          -0.000223416 0.0282039 0 -8.84296e-05 0.0329761 0 -8.08283e-05 0.0375 0 2.4514e-05 0.0188936 0
          -0.000274139 0.04375 0 -0.000115092 0.05 0 -0.000210189 0.03125 0 -1.53634e-05 0.023461 0
          3.91415e-06 0.025 0 -0.000164967 0.0221973 0 0.00017519 0.0113988 0 -2.41762e-05 0.0255416 0
          4.80869e-05 0.013419 0 0.000649339 0.00141435 0 -0.000257131 0.0377506 0 -0.000164967 0.0653027 0
          -8.84296e-05 0.0545239 0 -2.41762e-05 0.0744584 0 2.4514e-05 0.0561064 0 -0.000257131 0.0622494 0
          4.80869e-05 0.086581 0 0.00017519 0.0761012 0 0.000649339 0.0985856 0 -0.000223416 0.0467961 0
          -1.53634e-05 0.039039 0 -9.83178e-05 0.00935162 0 0.000126839 0.00465042 0 7.19144e-05 0.0124887 0
          8.17473e-05 0.00622341 0 -3.12785e-05 0.00623844 0 0.000218447 -2.31152e-05 0 -0.000154504 0.0187478 0
          5.21663e-05 0.0140485 0 -6.38397e-05 0.00309195 0 0.000122812 0.00154356 0 0.000110798 -4.44246e-05 0
          -0.000109085 -1.91021e-05 0 0 0 0 -2.35758e-05 -3.5113e-05 0 1.50736e-05 0.00956521 0
          0.000171986 0.00784956 0 0.000449475 0.000179248 0 0.000134725 5.24011e-05 0 0.000449886 0.000572954 0
          -0.000121221 0.015667 0 -0.000102776 0.0156377 0 0.000107904 0.00782131 0 5.69242e-05 0.0125 0
          8.17473e-05 0.0187766 0 -0.000124795 0.00625 0 0 0 0 -0.000141754 0.01875 0
          5.21663e-05 0.0234515 0 -0.000114009 0.00938868 0 0.000122812 0.0109564 0 0 0 0
          0 0 0 0 0 0 0 0 0 -0.000114009 0.00311132 0
          0.000107904 0.00467869 0 0 0 0 0 0 0 0 0 0
          -0.000102776 0.00936232 0 -0.000121221 0.046833 0 0.000171986 0.0546504 0 7.19144e-05 0.0375113 0
          -3.12785e-05 0.0437616 0 0.000218447 0.0500231 0 -0.000154504 0.0312522 0 1.50737e-05 0.0654348 0
          0.000449475 0.0748207 0 0.000449886 0.086927 0 0.000134725 0.0624476 0 -6.38397e-05 0.021908 0
          0.000126839 0.0328496 0 0.000110798 0.0250444 0 -2.35758e-05 0.0375351 0 -0.000109085 0.0125191 0
          -9.83178e-05 0.0281484 0
        </DataArray>
      </PointData>
      <Points>
        <DataArray type="Float32" Name="Coordinates" NumberOfComponents="3" format="ascii">
          0.75 0.375 0 0.875 0.375 0 0.75 0.5 0 0.75 0.25 0
          0.875 0.5 0 1 0.5 0 0.625 0.5 0 0.625 0.375 0
          0.5 0.5 0 0.875 0.25 0 0.875 0.125 0 1 0.25 0
          1 0.125 0 1 0 0 1 0.375 0 0.875 0.75 0
          0.875 0.625 0 1 0.75 0 0.75 0.75 0 1 0.625 0
          1 0.875 0 0.875 0.875 0 1 1 0 0.75 0.625 0
          0.625 0.625 0 0.375 0.25 0 0.375 0.125 0 0.5 0.25 0
          0.25 0.25 0 0.5 0.125 0 0.5 0 0 0.5 0.375 0
          0.375 0.375 0 0.25 0.125 0 0.125 0.125 0 0.25 0 0
          0.125 0 0 0 0 0 0.375 0 0 0.75 0.125 0
          0.625 0.125 0 0.75 0 0 0.625 0 0 0.875 0 0
          0.625 0.25 0 0.25 0.625 0 0.125 0.625 0 0.25 0.5 0
          0.25 0.75 0 0.125 0.5 0 0 0.5 0 0.375 0.5 0
          0.375 0.625 0 0.125 0.75 0 0.125 0.875 0 0 0.75 0
          0 0.875 0 0 1 0 0 0.625 0 0.125 0.25 0
          0.125 0.375 0 0 0.25 0 0 0.375 0 0 0.125 0
          0.25 0.375 0 0.625 0.75 0 0.625 0.875 0 0.5 0.75 0
          0.5 0.875 0 0.5 1 0 0.5 0.625 0 0.75 0.875 0
          0.75 1 0 0.875 1 0 0.625 1 0 0.25 0.875 0
          0.375 0.875 0 0.25 1 0 0.375 1 0 0.125 1 0
          0.375 0.75 0
        </DataArray>
      </Points>
      <Cells>
        <DataArray type="Int32" Name="connectivity" NumberOfComponents="1" format="ascii">
          0 1 2 0 3 1 4 1 5 4 2 1
          6 7 2 6 8 7 0 7 3 0 2 7
          9 10 11 9 3 10 12 10 13 12 11 10
          14 1 11 14 5 1 9 1 3 9 11 1
          15 16 17 15 18 16 19 16 5 19 17 16
          20 21 17 20 22 21 15 21 18 15 17 21
          23 24 2 23 18 24 6 24 8 6 2 24
          4 16 2 4 5 16 23 16 18 23 2 16
          25 26 27 25 28 26 29 26 30 29 27 26
          31 32 27 31 8 32 25 32 28 25 27 32
          33 34 35 33 28 34 36 34 37 36 35 34
          38 26 35 38 30 26 33 26 28 33 35 26
          39 40 41 39 3 40 42 40 30 42 41 40
          43 10 41 43 13 10 39 10 3 39 41 10
          44 7 27 44 3 7 31 7 8 31 27 7
          29 40 27 29 30 40 44 40 3 44 27 40
          45 46 47 45 48 46 49 46 50 49 47 46
          51 52 47 51 8 52 45 52 48 45 47 52
          53 54 55 53 48 54 56 54 57 56 55 54
          58 46 55 58 50 46 53 46 48 53 55 46
          59 60 61 59 28 60 62 60 50 62 61 60
          63 34 61 63 37 34 59 34 28 59 61 34
          64 32 47 64 28 32 51 32 8 51 47 32
          49 60 47 49 50 60 64 60 28 64 47 60
          65 66 67 65 18 66 68 66 69 68 67 66
          70 24 67 70 8 24 65 24 18 65 67 24
          71 21 72 71 18 21 73 21 22 73 72 21
          74 66 72 74 69 66 71 66 18 71 72 66
          75 76 77 75 48 76 78 76 69 78 77 76
          79 54 77 79 57 54 75 54 48 75 77 54
          80 52 67 80 48 52 70 52 8 70 67 52
          68 76 67 68 69 76 80 76 48 80 67 76
        </DataArray>
        <DataArray type="Int32" Name="offsets" NumberOfComponents="1" format="ascii">
          3 6 9 12 15 18 21 24 27 30 33 36
          39 42 45 48 51 54 57 60 63 66 69 72
          75 78 81 84 87 90 93 96 99 102 105 108
          111 114 117 120 123 126 129 132 135 138 141 144
          147 150 153 156 159 162 165 168 171 174 177 180
          183 186 189 192 195 198 201 204 207 210 213 216
          219 222 225 228 231 234 237 240 243 246 249 252
          255 258 261 264 267 270 273 276 279 282 285 288
          291 294 297 300 303 306 309 312 315 318 321 324
          327 330 333 336 339 342 345 348 351 354 357 360
          363 366 369 372 375 378 381 384
        </DataArray>
        <DataArray type="UInt8" Name="types" NumberOfComponents="1" format="ascii">
          5 5 5 5 5 5 5 5 5 5 5 5
          5 5 5 5 5 5 5 5 5 5 5 5
          5 5 5 5 5 5 5 5 5 5 5 5
          5 5 5 5 5 5 5 5 5 5 5 5
          5 5 5 5 5 5 5 5 5 5 5 5
          5 5 5 5 5 5 5 5 5 5 5 5
          5 5 5 5 5 5 5 5 5 5 5 5
          5 5 5 5 5 5 5 5 5 5 5 5
          5 5 5 5 5 5 5 5 5 5 5 5
          5 5 5 5 5 5 5 5 5 5 5 5
          5 5 5 5 5 5 5 5
        </DataArray>
      </Cells>
    </Piece>
  </UnstructuredGrid>
</VTKFile>
