<?xml version="1.0"?>
<VTKFile type="UnstructuredGrid" version="0.1" byte_order="LittleEndian">
  <UnstructuredGrid>
    <Piece NumberOfCells="6400" NumberOfPoints="3609">
      <PointData Vectors="Uh">
        <DataArray type="Float32" Name="Uh" NumberOfComponents="3" format="ascii">
          -0.000471239 -0.000471239 0 -0.000549779 -0.000549779 0 0 0 0 -0.000942478 -0.000942478 0
          0 0 0 0 0 0 0 0 0 -0.000392699 -0.000392699 0
          0 0 0 -0.00109956 -0.00109956 0 -0.00164934 -0.00164934 0 -0.00125664 -0.00125664 0
          -0.00188495 -0.00188495 0 -0.00251327 -0.00251327 0 -0.000628318 -0.000628318 0 0.00109956 0.00109956 0
          0.000549779 0.000549779 0 0.00125664 0.00125664 0 0.000942478 0.000942478 0 0.000628318 0.000628318 0
          0.00188495 0.00188495 0 0.00164934 0.00164934 0 0.00251327 0.00251327 0 0.000471239 0.000471239 0
          0.000392699 0.000392699 0 -0.000471239 -0.000471239 0 -0.000706858 -0.000706858 0 -0.000628319 -0.000628319 0
          -0.000314159 -0.000314159 0 -0.000942478 -0.000942478 0 -0.00125664 -0.00125664 0 -0.000314159 -0.000314159 0
          -0.000235619 -0.000235619 0 -0.000471239 -0.000471239 0 -0.000235619 -0.000235619 0 -0.000628318 -0.000628318 0
          -0.000314159 -0.000314159 0 0 0 0 -0.000942478 -0.000942478 0 -0.00141372 -0.00141372 0
          -0.0011781 -0.0011781 0 -0.00188495 -0.00188495 0 -0.0015708 -0.0015708 0 -0.00219911 -0.00219911 0
          -0.000785398 -0.000785398 0 0.00015708 0.00015708 0 7.85398e-05 7.85398e-05 0 0 0 0
          0.000314159 0.000314159 0 0 0 0 0 0 0 0 0 0
          0.000235619 0.000235619 0 0.00015708 0.00015708 0 0.000235619 0.000235619 0 0 0 0
          0 0 0 0 0 0 0 0 0 -0.00015708 -0.00015708 0
          -7.85398e-05 -7.85398e-05 0 0 0 0 0 0 0 0 0 0
          -0.00015708 -0.00015708 0 0.000785398 0.000785398 0 0.0011781 0.0011781 0 0.000628319 0.000628319 0
          0.000942478 0.000942478 0 0.00125664 0.00125664 0 0.000314159 0.000314159 0 0.00141372 0.00141372 0
          0.00188495 0.00188495 0 0.00219911 0.00219911 0 0.0015708 0.0015708 0 0.000471239 0.000471239 0
          0.000706858 0.000706858 0 0.000628318 0.000628318 0 0.000942478 0.000942478 0 0.000314159 0.000314159 0
          0.000471239 0.000471239 0 -0.00109956 -0.00109956 0 -0.0011781 -0.0011781 0 0 0 0
          -0.00219911 -0.00219911 0 0 0 0 0 0 0 0 0 0
          -0.00102102 -0.00102102 0 0 0 0 -0.00235619 -0.00235619 0 -0.00353428 -0.00353428 0
          -0.00251327 -0.00251327 0 -0.0037699 -0.0037699 0 -0.00502653 -0.00502653 0 -0.00125664 -0.00125664 0
          0.00235619 0.00235619 0 0.0011781 0.0011781 0 0.00251327 0.00251327 0 0.00219911 0.00219911 0
          0.00125664 0.00125664 0 0.0037699 0.0037699 0 0.00353428 0.00353428 0 0.00502653 0.00502653 0
          0.00109956 0.00109956 0 0.00102102 0.00102102 0 -0.00172788 -0.00172788 0 -0.00259181 -0.00259181 0
          -0.00188495 -0.00188495 0 -0.0015708 -0.0015708 0 -0.00282743 -0.00282743 0 -0.0037699 -0.0037699 0
          -0.000942478 -0.000942478 0 -0.000863938 -0.000863938 0 -0.00235619 -0.00235619 0 -0.00212057 -0.00212057 0
          -0.00314159 -0.00314159 0 -0.00282743 -0.00282743 0 -0.00345575 -0.00345575 0 -0.00329867 -0.00329867 0
          -0.00306305 -0.00306305 0 -0.00439822 -0.00439822 0 -0.00408406 -0.00408406 0 -0.00471237 -0.00471237 0
          -0.00204203 -0.00204203 0 0.000785398 0.000785398 0 0.000706858 0.000706858 0 0 0 0
          0.0015708 0.0015708 0 0 0 0 0 0 0 0.000863938 0.000863938 0
          0.00141372 0.00141372 0 0.00212057 0.00212057 0 -0.00141372 -0.00141372 0 -0.000706858 -0.000706858 0
          -0.000785398 -0.000785398 0 0.00204203 0.00204203 0 0.00306305 0.00306305 0 0.00188495 0.00188495 0
          0.00282743 0.00282743 0 0.0037699 0.0037699 0 0.000942478 0.000942478 0 0.00329867 0.00329867 0
          0.00439822 0.00439822 0 0.00471237 0.00471237 0 0.00408406 0.00408406 0 0.00235619 0.00235619 0
          0.00259181 0.00259181 0 0.00314159 0.00314159 0 0.00345575 0.00345575 0 0.00282743 0.00282743 0
          0.00172788 0.00172788 0 -0.00172787 -0.00172787 0 -0.00180642 -0.00180642 0 0 0 0
          -0.00345575 -0.00345575 0 0 0 0 0 0 0 0 0 0
          -0.00164934 -0.00164934 0 0 0 0 -0.00361282 -0.00361282 0 -0.00541922 -0.00541922 0
          -0.0037699 -0.0037699 0 -0.00565484 -0.00565484 0 -0.00753975 -0.00753975 0 -0.00188495 -0.00188495 0
          0.00361282 0.00361282 0 0.00180642 0.00180642 0 0.0037699 0.0037699 0 0.00345575 0.00345575 0
          0.00188495 0.00188495 0 0.00565484 0.00565484 0 0.00541922 0.00541922 0 0.00753975 0.00753975 0
          0.00172787 0.00172787 0 0.00164934 0.00164934 0 -0.00298451 -0.00298451 0 -0.00447675 -0.00447675 0
          -0.00314159 -0.00314159 0 -0.00282743 -0.00282743 0 -0.00471237 -0.00471237 0 -0.00628314 -0.00628314 0
          -0.0015708 -0.0015708 0 -0.00149226 -0.00149226 0 -0.00424114 -0.00424114 0 -0.00400552 -0.00400552 0
          -0.00565484 -0.00565484 0 -0.00534068 -0.00534068 0 -0.00596899 -0.00596899 0 -0.0051836 -0.0051836 0
          -0.00494799 -0.00494799 0 -0.00691145 -0.00691145 0 -0.0065973 -0.0065973 0 -0.0072256 -0.0072256 0
          -0.00329867 -0.00329867 0 0.00141372 0.00141372 0 0.00133518 0.00133518 0 0 0 0
          0.00282743 0.00282743 0 0 0 0 0 0 0 0.00149226 0.00149226 0
          0.00267035 0.00267035 0 0.00400552 0.00400552 0 -0.00267035 -0.00267035 0 -0.00133518 -0.00133518 0
          -0.00141372 -0.00141372 0 0.00329867 0.00329867 0 0.00494799 0.00494799 0 0.00314159 0.00314159 0
          0.00471237 0.00471237 0 0.00628314 0.00628314 0 0.0015708 0.0015708 0 0.0051836 0.0051836 0
          0.00691145 0.00691145 0 0.0072256 0.0072256 0 0.0065973 0.0065973 0 0.00424114 0.00424114 0
          0.00447675 0.00447675 0 0.00565484 0.00565484 0 0.00596899 0.00596899 0 0.00534068 0.00534068 0
          0.00298451 0.00298451 0 -0.00235619 -0.00235619 0 -0.00243473 -0.00243473 0 0 0 0
          -0.00471237 -0.00471237 0 0 0 0 0 0 0 0 0 0
          -0.00227765 -0.00227765 0 0 0 0 -0.00486945 -0.00486945 0 -0.00730414 -0.00730414 0
          -0.00502653 -0.00502653 0 -0.00753975 -0.00753975 0 -0.0100529 -0.0100529 0 -0.00251327 -0.00251327 0
          0.00486945 0.00486945 0 0.00243473 0.00243473 0 0.00502653 0.00502653 0 0.00471237 0.00471237 0
          0.00251327 0.00251327 0 0.00753975 0.00753975 0 0.00730414 0.00730414 0 0.0100529 0.0100529 0
          0.00235619 0.00235619 0 0.00227765 0.00227765 0 -0.00424114 -0.00424114 0 -0.00636168 -0.00636168 0
          -0.00439822 -0.00439822 0 -0.00408406 -0.00408406 0 -0.00659729 -0.00659729 0 -0.00879635 -0.00879635 0
          -0.00219911 -0.00219911 0 -0.00212057 -0.00212057 0 -0.00612607 -0.00612607 0 -0.00589045 -0.00589045 0
          -0.00816805 -0.00816805 0 -0.0078539 -0.0078539 0 -0.0084822 -0.0084822 0 -0.00706852 -0.00706852 0
          -0.00683291 -0.00683291 0 -0.00942464 -0.00942464 0 -0.00911049 -0.00911049 0 -0.00973878 -0.00973878 0
          -0.00455529 -0.00455529 0 0.00204203 0.00204203 0 0.00196349 0.00196349 0 0 0 0
          0.00408406 0.00408406 0 0 0 0 0 0 0 0.00212057 0.00212057 0
          0.00392698 0.00392698 0 0.00589045 0.00589045 0 -0.00392698 -0.00392698 0 -0.00196349 -0.00196349 0
          -0.00204203 -0.00204203 0 0.00455529 0.00455529 0 0.00683291 0.00683291 0 0.00439822 0.00439822 0
          0.00659729 0.00659729 0 0.00879635 0.00879635 0 0.00219911 0.00219911 0 0.00706852 0.00706852 0
          0.00942464 0.00942464 0 0.00973878 0.00973878 0 0.00911049 0.00911049 0 0.00612607 0.00612607 0
          0.00636168 0.00636168 0 0.00816805 0.00816805 0 0.0084822 0.0084822 0 0.0078539 0.0078539 0
          0.00424114 0.00424114 0 -0.00298451 -0.00298451 0 -0.00306305 -0.00306305 0 0 0 0
          -0.00596899 -0.00596899 0 0 0 0 0 0 0 0 0 0
          -0.00290597 -0.00290597 0 0 0 0 -0.00612607 -0.00612607 0 -0.00918903 -0.00918903 0
          -0.00628315 -0.00628315 0 -0.00942463 -0.00942463 0 -0.012566 -0.012566 0 -0.00314159 -0.00314159 0
          0.00612607 0.00612607 0 0.00306305 0.00306305 0 0.00628315 0.00628315 0 0.00596899 0.00596899 0
          0.00314159 0.00314159 0 0.00942463 0.00942463 0 0.00918903 0.00918903 0 0.012566 0.012566 0
          0.00298451 0.00298451 0 0.00290597 0.00290597 0 -0.00549776 -0.00549776 0 -0.00824659 -0.00824659 0
          -0.00565484 -0.00565484 0 -0.00534068 -0.00534068 0 -0.0084822 -0.0084822 0 -0.0113095 -0.0113095 0
          -0.00282743 -0.00282743 0 -0.00274889 -0.00274889 0 -0.00801097 -0.00801097 0 -0.00777537 -0.00777537 0
          -0.0106812 -0.0106812 0 -0.0103671 -0.0103671 0 -0.0109954 -0.0109954 0 -0.00895342 -0.00895342 0
          -0.00871781 -0.00871781 0 -0.0119378 -0.0119378 0 -0.0116236 -0.0116236 0 -0.0122519 -0.0122519 0
          -0.00581191 -0.00581191 0 0.00267035 0.00267035 0 0.00259181 0.00259181 0 0 0 0
          0.00534068 0.00534068 0 0 0 0 0 0 0 0.00274889 0.00274889 0
          0.0051836 0.0051836 0 0.00777537 0.00777537 0 -0.0051836 -0.0051836 0 -0.00259181 -0.00259181 0
          -0.00267035 -0.00267035 0 0.00581191 0.00581191 0 0.00871781 0.00871781 0 0.00565484 0.00565484 0
          0.0084822 0.0084822 0 0.0113095 0.0113095 0 0.00282743 0.00282743 0 0.00895342 0.00895342 0
          0.0119378 0.0119378 0 0.0122519 0.0122519 0 0.0116236 0.0116236 0 0.00801097 0.00801097 0
          0.00824659 0.00824659 0 0.0106812 0.0106812 0 0.0109954 0.0109954 0 0.0103671 0.0103671 0
          0.00549776 0.00549776 0 -0.00361282 -0.00361282 0 -0.00369137 -0.00369137 0 0 0 0
          -0.0072256 -0.0072256 0 0 0 0 0 0 0 0 0 0
          -0.00353429 -0.00353429 0 0 0 0 -0.00738267 -0.00738267 0 -0.0110739 -0.0110739 0
          -0.00753976 -0.00753976 0 -0.0113095 -0.0113095 0 -0.0150791 -0.0150791 0 -0.0037699 -0.0037699 0
          0.00738267 0.00738267 0 0.00369137 0.00369137 0 0.00753976 0.00753976 0 0.0072256 0.0072256 0
          0.0037699 0.0037699 0 0.0113095 0.0113095 0 0.0110739 0.0110739 0 0.0150791 0.0150791 0
          0.00361282 0.00361282 0 0.00353429 0.00353429 0 -0.00675437 -0.00675437 0 -0.0101315 -0.0101315 0
          -0.00691145 -0.00691145 0 -0.0065973 -0.0065973 0 -0.0103671 -0.0103671 0 -0.0138226 -0.0138226 0
          -0.00345574 -0.00345574 0 -0.00337721 -0.00337721 0 -0.00989585 -0.00989585 0 -0.00966025 -0.00966025 0
          -0.0131943 -0.0131943 0 -0.0128802 -0.0128802 0 -0.0135084 -0.0135084 0 -0.0108383 -0.0108383 0
          -0.0106027 -0.0106027 0 -0.0144508 -0.0144508 0 -0.0141367 -0.0141367 0 -0.0147649 -0.0147649 0
          -0.00706852 -0.00706852 0 0.00329866 0.00329866 0 0.00322013 0.00322013 0 0 0 0
          0.0065973 0.0065973 0 0 0 0 0 0 0 0.00337721 0.00337721 0
          0.00644022 0.00644022 0 0.00966025 0.00966025 0 -0.00644022 -0.00644022 0 -0.00322013 -0.00322013 0
          -0.00329866 -0.00329866 0 0.00706852 0.00706852 0 0.0106027 0.0106027 0 0.00691145 0.00691145 0
          0.0103671 0.0103671 0 0.0138226 0.0138226 0 0.00345574 0.00345574 0 0.0108383 0.0108383 0
          0.0144508 0.0144508 0 0.0147649 0.0147649 0 0.0141367 0.0141367 0 0.00989585 0.00989585 0
          0.0101315 0.0101315 0 0.0131943 0.0131943 0 0.0135084 0.0135084 0 0.0128802 0.0128802 0
          0.00675437 0.00675437 0 -0.00424113 -0.00424113 0 -0.00431968 -0.00431968 0 0 0 0
          -0.0084822 -0.0084822 0 0 0 0 0 0 0 0 0 0
          -0.0041626 -0.0041626 0 0 0 0 -0.00863927 -0.00863927 0 -0.0129587 -0.0129587 0
          -0.00879635 -0.00879635 0 -0.0131943 -0.0131943 0 -0.017592 -0.017592 0 -0.00439821 -0.00439821 0
          0.00863927 0.00863927 0 0.00431968 0.00431968 0 0.00879635 0.00879635 0 0.0084822 0.0084822 0
          0.00439821 0.00439821 0 0.0131943 0.0131943 0 0.0129587 0.0129587 0 0.017592 0.017592 0
          0.00424113 0.00424113 0 0.0041626 0.0041626 0 -0.00801097 -0.00801097 0 -0.0120163 -0.0120163 0
          -0.00816806 -0.00816806 0 -0.00785391 -0.00785391 0 -0.0122519 -0.0122519 0 -0.0163356 -0.0163356 0
          -0.00408406 -0.00408406 0 -0.00400552 -0.00400552 0 -0.0117807 -0.0117807 0 -0.0115451 -0.0115451 0
          -0.0157073 -0.0157073 0 -0.0153932 -0.0153932 0 -0.0160214 -0.0160214 0 -0.0127231 -0.0127231 0
          -0.0124875 -0.0124875 0 -0.0169638 -0.0169638 0 -0.0166497 -0.0166497 0 -0.0172779 -0.0172779 0
          -0.00832512 -0.00832512 0 0.00392698 0.00392698 0 0.00384844 0.00384844 0 0 0 0
          0.00785391 0.00785391 0 0 0 0 0 0 0 0.00400552 0.00400552 0
          0.00769682 0.00769682 0 0.0115451 0.0115451 0 -0.00769682 -0.00769682 0 -0.00384844 -0.00384844 0
          -0.00392698 -0.00392698 0 0.00832512 0.00832512 0 0.0124875 0.0124875 0 0.00816806 0.00816806 0
          0.0122519 0.0122519 0 0.0163356 0.0163356 0 0.00408406 0.00408406 0 0.0127231 0.0127231 0
          0.0169638 0.0169638 0 0.0172779 0.0172779 0 0.0166497 0.0166497 0 0.0117807 0.0117807 0
          0.0120163 0.0120163 0 0.0157073 0.0157073 0 0.0160214 0.0160214 0 0.0153932 0.0153932 0
          0.00801097 0.00801097 0 -0.00486944 -0.00486944 0 -0.00494799 -0.00494799 0 0 0 0
          -0.00973879 -0.00973879 0 0 0 0 0 0 0 0 0 0
          -0.00479092 -0.00479092 0 0 0 0 -0.00989585 -0.00989585 0 -0.0148435 -0.0148435 0
          -0.0100529 -0.0100529 0 -0.0150791 -0.0150791 0 -0.0201048 -0.0201048 0 -0.00502652 -0.00502652 0
          0.00989585 0.00989585 0 0.00494799 0.00494799 0 0.0100529 0.0100529 0 0.00973879 0.00973879 0
          0.00502652 0.00502652 0 0.0150791 0.0150791 0 0.0148435 0.0148435 0 0.0201048 0.0201048 0
          0.00486944 0.00486944 0 0.00479092 0.00479092 0 -0.00926756 -0.00926756 0 -0.0139011 -0.0139011 0
          -0.00942465 -0.00942465 0 -0.0091105 -0.0091105 0 -0.0141367 -0.0141367 0 -0.0188484 -0.0188484 0
          -0.00471237 -0.00471237 0 -0.00463384 -0.00463384 0 -0.0136655 -0.0136655 0 -0.0134299 -0.0134299 0
          -0.0182202 -0.0182202 0 -0.0179061 -0.0179061 0 -0.0185343 -0.0185343 0 -0.0146079 -0.0146079 0
          -0.0143723 -0.0143723 0 -0.0194766 -0.0194766 0 -0.0191625 -0.0191625 0 -0.0197907 -0.0197907 0
          -0.0095817 -0.0095817 0 0.00455529 0.00455529 0 0.00447676 0.00447676 0 0 0 0
          0.0091105 0.0091105 0 0 0 0 0 0 0 0.00463384 0.00463384 0
          0.00895341 0.00895341 0 0.0134299 0.0134299 0 -0.00895341 -0.00895341 0 -0.00447676 -0.00447676 0
          -0.00455529 -0.00455529 0 0.0095817 0.0095817 0 0.0143723 0.0143723 0 0.00942465 0.00942465 0
          0.0141367 0.0141367 0 0.0188484 0.0188484 0 0.00471237 0.00471237 0 0.0146079 0.0146079 0
          0.0194766 0.0194766 0 0.0197907 0.0197907 0 0.0191625 0.0191625 0 0.0136655 0.0136655 0
          0.0139011 0.0139011 0 0.0182202 0.0182202 0 0.0185343 0.0185343 0 0.0179061 0.0179061 0
          0.00926756 0.00926756 0 -0.00549775 -0.00549775 0 -0.00557631 -0.00557631 0 0 0 0
          -0.0109954 -0.0109954 0 0 0 0 0 0 0 0 0 0
          -0.00541923 -0.00541923 0 0 0 0 -0.0111524 -0.0111524 0 -0.0167282 -0.0167282 0
          -0.0113095 -0.0113095 0 -0.0169638 -0.0169638 0 -0.0226175 -0.0226175 0 -0.00565483 -0.00565483 0
          0.0111524 0.0111524 0 0.00557631 0.00557631 0 0.0113095 0.0113095 0 0.0109954 0.0109954 0
          0.00565483 0.00565483 0 0.0169638 0.0169638 0 0.0167282 0.0167282 0 0.0226175 0.0226175 0
          0.00549775 0.00549775 0 0.00541923 0.00541923 0 -0.0105241 -0.0105241 0 -0.0157859 -0.0157859 0
          -0.0106812 -0.0106812 0 -0.0103671 -0.0103671 0 -0.0160214 -0.0160214 0 -0.0213612 -0.0213612 0
          -0.00534068 -0.00534068 0 -0.00526215 -0.00526215 0 -0.0155502 -0.0155502 0 -0.0153147 -0.0153147 0
          -0.020733 -0.020733 0 -0.0204189 -0.0204189 0 -0.0210471 -0.0210471 0 -0.0164926 -0.0164926 0
          -0.016257 -0.016257 0 -0.0219894 -0.0219894 0 -0.0216753 -0.0216753 0 -0.0223035 -0.0223035 0
          -0.0108383 -0.0108383 0 0.0051836 0.0051836 0 0.00510507 0.00510507 0 0 0 0
          0.0103671 0.0103671 0 0 0 0 0 0 0 0.00526215 0.00526215 0
          0.01021 0.01021 0 0.0153147 0.0153147 0 -0.01021 -0.01021 0 -0.00510507 -0.00510507 0
          -0.0051836 -0.0051836 0 0.0108383 0.0108383 0 0.016257 0.016257 0 0.0106812 0.0106812 0
          0.0160214 0.0160214 0 0.0213612 0.0213612 0 0.00534068 0.00534068 0 0.0164926 0.0164926 0
          0.0219894 0.0219894 0 0.0223035 0.0223035 0 0.0216753 0.0216753 0 0.0155502 0.0155502 0
          0.0157859 0.0157859 0 0.020733 0.020733 0 0.0210471 0.0210471 0 0.0204189 0.0204189 0
          0.0105241 0.0105241 0 -0.00612606 -0.00612606 0 -0.00620462 -0.00620462 0 0 0 0
          -0.0122519 -0.0122519 0 0 0 0 0 0 0 0 0 0
          -0.00604754 -0.00604754 0 0 0 0 -0.012409 -0.012409 0 -0.0186129 -0.0186129 0
          -0.0125661 -0.0125661 0 -0.0188484 -0.0188484 0 -0.0251301 -0.0251301 0 -0.00628313 -0.00628313 0
          0.012409 0.012409 0 0.00620462 0.00620462 0 0.0125661 0.0125661 0 0.0122519 0.0122519 0
          0.00628313 0.00628313 0 0.0188484 0.0188484 0 0.0186129 0.0186129 0 0.0251301 0.0251301 0
          0.00612606 0.00612606 0 0.00604754 0.00604754 0 -0.0117807 -0.0117807 0 -0.0176706 -0.0176706 0
          -0.0119378 -0.0119378 0 -0.0116236 -0.0116236 0 -0.0179061 -0.0179061 0 -0.0238738 -0.0238738 0
          -0.00596898 -0.00596898 0 -0.00589046 -0.00589046 0 -0.0174349 -0.0174349 0 -0.0171994 -0.0171994 0
          -0.0232457 -0.0232457 0 -0.0229316 -0.0229316 0 -0.0235598 -0.0235598 0 -0.0183772 -0.0183772 0
          -0.0181417 -0.0181417 0 -0.024502 -0.024502 0 -0.0241879 -0.0241879 0 -0.024816 -0.024816 0
          -0.0120948 -0.0120948 0 0.00581191 0.00581191 0 0.00573338 0.00573338 0 0 0 0
          0.0116236 0.0116236 0 0 0 0 0 0 0 0.00589046 0.00589046 0
          0.0114665 0.0114665 0 0.0171994 0.0171994 0 -0.0114665 -0.0114665 0 -0.00573338 -0.00573338 0
          -0.00581191 -0.00581191 0 0.0120948 0.0120948 0 0.0181417 0.0181417 0 0.0119378 0.0119378 0
          0.0179061 0.0179061 0 0.0238738 0.0238738 0 0.00596898 0.00596898 0 0.0183772 0.0183772 0
          0.024502 0.024502 0 0.024816 0.024816 0 0.0241879 0.0241879 0 0.0174349 0.0174349 0
          0.0176706 0.0176706 0 0.0232457 0.0232457 0 0.0235598 0.0235598 0 0.0229316 0.0229316 0
          0.0117807 0.0117807 0 -0.00675436 -0.00675436 0 -0.00683292 -0.00683292 0 0 0 0
          -0.0135085 -0.0135085 0 0 0 0 0 0 0 0 0 0
          -0.00667585 -0.00667585 0 0 0 0 -0.0136655 -0.0136655 0 -0.0204975 -0.0204975 0
          -0.0138226 -0.0138226 0 -0.020733 -0.020733 0 -0.0276425 -0.0276425 0 -0.00691143 -0.00691143 0
          0.0136655 0.0136655 0 0.00683292 0.00683292 0 0.0138226 0.0138226 0 0.0135085 0.0135085 0
          0.00691143 0.00691143 0 0.020733 0.020733 0 0.0204975 0.0204975 0 0.0276425 0.0276425 0
          0.00675436 0.00675436 0 0.00667585 0.00667585 0 -0.0130372 -0.0130372 0 -0.0195552 -0.0195552 0
          -0.0131943 -0.0131943 0 -0.0128802 -0.0128802 0 -0.0197907 -0.0197907 0 -0.0263863 -0.0263863 0
          -0.00659728 -0.00659728 0 -0.00651877 -0.00651877 0 -0.0193196 -0.0193196 0 -0.0190841 -0.0190841 0
          -0.0257582 -0.0257582 0 -0.0254442 -0.0254442 0 -0.0260723 -0.0260723 0 -0.0202618 -0.0202618 0
          -0.0200264 -0.0200264 0 -0.0270144 -0.0270144 0 -0.0267004 -0.0267004 0 -0.0273285 -0.0273285 0
          -0.0133513 -0.0133513 0 0.00644021 0.00644021 0 0.00636169 0.00636169 0 0 0 0
          0.0128802 0.0128802 0 0 0 0 0 0 0 0.00651877 0.00651877 0
          0.0127231 0.0127231 0 0.0190841 0.0190841 0 -0.0127231 -0.0127231 0 -0.00636169 -0.00636169 0
          -0.00644021 -0.00644021 0 0.0133513 0.0133513 0 0.0200264 0.0200264 0 0.0131943 0.0131943 0
          0.0197907 0.0197907 0 0.0263863 0.0263863 0 0.00659728 0.00659728 0 0.0202618 0.0202618 0
          0.0270144 0.0270144 0 0.0273285 0.0273285 0 0.0267004 0.0267004 0 0.0193196 0.0193196 0
          0.0195552 0.0195552 0 0.0257582 0.0257582 0 0.0260723 0.0260723 0 0.0254442 0.0254442 0
          0.0130372 0.0130372 0 -0.00738266 -0.00738266 0 -0.00746123 -0.00746123 0 0 0 0
          -0.014765 -0.014765 0 0 0 0 0 0 0 0 0 0
          -0.00730415 -0.00730415 0 0 0 0 -0.014922 -0.014922 0 -0.022382 -0.022382 0
          -0.0150791 -0.0150791 0 -0.0226175 -0.0226175 0 -0.0301547 -0.0301547 0 -0.00753973 -0.00753973 0
          0.014922 0.014922 0 0.00746123 0.00746123 0 0.0150791 0.0150791 0 0.014765 0.014765 0
          0.00753973 0.00753973 0 0.0226175 0.0226175 0 0.022382 0.022382 0 0.0301547 0.0301547 0
          0.00738266 0.00738266 0 0.00730415 0.00730415 0 -0.0142937 -0.0142937 0 -0.0214398 -0.0214398 0
          -0.0144509 -0.0144509 0 -0.0141367 -0.0141367 0 -0.0216752 -0.0216752 0 -0.0288986 -0.0288986 0
          -0.00722558 -0.00722558 0 -0.00714708 -0.00714708 0 -0.0212041 -0.0212041 0 -0.0209686 -0.0209686 0
          -0.0282706 -0.0282706 0 -0.0279565 -0.0279565 0 -0.0285846 -0.0285846 0 -0.0221464 -0.0221464 0
          -0.0219109 -0.0219109 0 -0.0295267 -0.0295267 0 -0.0292127 -0.0292127 0 -0.0298407 -0.0298407 0
          -0.0146079 -0.0146079 0 0.00706851 0.00706851 0 0.00699 0.00699 0 0 0 0
          0.0141367 0.0141367 0 0 0 0 0 0 0 0.00714708 0.00714708 0
          0.0139796 0.0139796 0 0.0209686 0.0209686 0 -0.0139796 -0.0139796 0 -0.00699 -0.00699 0
          -0.00706851 -0.00706851 0 0.0146079 0.0146079 0 0.0219109 0.0219109 0 0.0144509 0.0144509 0
          0.0216752 0.0216752 0 0.0288986 0.0288986 0 0.00722558 0.00722558 0 0.0221464 0.0221464 0
          0.0295267 0.0295267 0 0.0298407 0.0298407 0 0.0292127 0.0292127 0 0.0212041 0.0212041 0
          0.0214398 0.0214398 0 0.0282706 0.0282706 0 0.0285846 0.0285846 0 0.0279565 0.0279565 0
          0.0142937 0.0142937 0 -0.00801095 -0.00801095 0 -0.00808954 -0.00808954 0 0 0 0
          -0.0160215 -0.0160215 0 0 0 0 0 0 0 0 0 0
          -0.00793246 -0.00793246 0 0 0 0 -0.0161785 -0.0161785 0 -0.0242665 -0.0242665 0
          -0.0163356 -0.0163356 0 -0.0245019 -0.0245019 0 -0.0326668 -0.0326668 0 -0.00816803 -0.00816803 0
          0.0161785 0.0161785 0 0.00808954 0.00808954 0 0.0163356 0.0163356 0 0.0160215 0.0160215 0
          0.00816803 0.00816803 0 0.0245019 0.0245019 0 0.0242665 0.0242665 0 0.0326668 0.0326668 0
          0.00801095 0.00801095 0 0.00793246 0.00793246 0 -0.0155502 -0.0155502 0 -0.0233243 -0.0233243 0
          -0.0157074 -0.0157074 0 -0.0153932 -0.0153932 0 -0.0235597 -0.0235597 0 -0.0314108 -0.0314108 0
          -0.00785388 -0.00785388 0 -0.00777538 -0.00777538 0 -0.0230886 -0.0230886 0 -0.0228532 -0.0228532 0
          -0.0307827 -0.0307827 0 -0.0304687 -0.0304687 0 -0.0310968 -0.0310968 0 -0.0240308 -0.0240308 0
          -0.0237954 -0.0237954 0 -0.0320388 -0.0320388 0 -0.0317248 -0.0317248 0 -0.0323528 -0.0323528 0
          -0.0158643 -0.0158643 0 0.00769681 0.00769681 0 0.00761831 0.00761831 0 0 0 0
          0.0153932 0.0153932 0 0 0 0 0 0 0 0.00777538 0.00777538 0
          0.0152361 0.0152361 0 0.0228532 0.0228532 0 -0.0152361 -0.0152361 0 -0.00761831 -0.00761831 0
          -0.00769681 -0.00769681 0 0.0158643 0.0158643 0 0.0237954 0.0237954 0 0.0157074 0.0157074 0
          0.0235597 0.0235597 0 0.0314108 0.0314108 0 0.00785388 0.00785388 0 0.0240308 0.0240308 0
          0.0320388 0.0320388 0 0.0323528 0.0323528 0 0.0317248 0.0317248 0 0.0230886 0.0230886 0
          0.0233243 0.0233243 0 0.0307827 0.0307827 0 0.0310968 0.0310968 0 0.0304687 0.0304687 0
          0.0155502 0.0155502 0 -0.00863925 -0.00863925 0 -0.00871784 -0.00871784 0 0 0 0
          -0.017278 -0.017278 0 0 0 0 0 0 0 0 0 0
          -0.00856076 -0.00856076 0 0 0 0 -0.0174349 -0.0174349 0 -0.0261509 -0.0261509 0
          -0.0175921 -0.0175921 0 -0.0263862 -0.0263862 0 -0.0351786 -0.0351786 0 -0.00879632 -0.00879632 0
          0.0174349 0.0174349 0 0.00871784 0.00871784 0 0.0175921 0.0175921 0 0.017278 0.017278 0
          0.00879632 0.00879632 0 0.0263862 0.0263862 0 0.0261509 0.0261509 0 0.0351786 0.0351786 0
          0.00863925 0.00863925 0 0.00856076 0.00856076 0 -0.0168067 -0.0168067 0 -0.0252087 -0.0252087 0
          -0.0169638 -0.0169638 0 -0.0166497 -0.0166497 0 -0.0254441 -0.0254441 0 -0.0339227 -0.0339227 0
          -0.00848217 -0.00848217 0 -0.00840369 -0.00840369 0 -0.024973 -0.024973 0 -0.0247376 -0.0247376 0
          -0.0332947 -0.0332947 0 -0.0329807 -0.0329807 0 -0.0336087 -0.0336087 0 -0.0259151 -0.0259151 0
          -0.0256798 -0.0256798 0 -0.0345506 -0.0345506 0 -0.0342367 -0.0342367 0 -0.0348646 -0.0348646 0
          -0.0171208 -0.0171208 0 0.0083251 0.0083251 0 0.00824661 0.00824661 0 0 0 0
          0.0166497 0.0166497 0 0 0 0 0 0 0 0.00840369 0.00840369 0
          0.0164926 0.0164926 0 0.0247376 0.0247376 0 -0.0164926 -0.0164926 0 -0.00824661 -0.00824661 0
          -0.0083251 -0.0083251 0 0.0171208 0.0171208 0 0.0256798 0.0256798 0 0.0169638 0.0169638 0
          0.0254441 0.0254441 0 0.0339227 0.0339227 0 0.00848217 0.00848217 0 0.0259151 0.0259151 0
          0.0345506 0.0345506 0 0.0348646 0.0348646 0 0.0342367 0.0342367 0 0.024973 0.024973 0
          0.0252087 0.0252087 0 0.0332947 0.0332947 0 0.0336087 0.0336087 0 0.0329807 0.0329807 0
          0.0168067 0.0168067 0 -0.00926753 -0.00926753 0 -0.00934614 -0.00934614 0 0 0 0
          -0.0185344 -0.0185344 0 0 0 0 0 0 0 0 0 0
          -0.00918906 -0.00918906 0 0 0 0 -0.0186913 -0.0186913 0 -0.0280352 -0.0280352 0
          -0.0188485 -0.0188485 0 -0.0282704 -0.0282704 0 -0.0376902 -0.0376902 0 -0.0094246 -0.0094246 0
          0.0186913 0.0186913 0 0.00934614 0.00934614 0 0.0188485 0.0188485 0 0.0185344 0.0185344 0
          0.0094246 0.0094246 0 0.0282704 0.0282704 0 0.0280352 0.0280352 0 0.0376902 0.0376902 0
          0.00926753 0.00926753 0 0.00918906 0.00918906 0 -0.0180631 -0.0180631 0 -0.027093 -0.027093 0
          -0.0182203 -0.0182203 0 -0.0179062 -0.0179062 0 -0.0273283 -0.0273283 0 -0.0364344 -0.0364344 0
          -0.00911046 -0.00911046 0 -0.00903199 -0.00903199 0 -0.0268573 -0.0268573 0 -0.026622 -0.026622 0
          -0.0358065 -0.0358065 0 -0.0354925 -0.0354925 0 -0.0361205 -0.0361205 0 -0.0277994 -0.0277994 0
          -0.0275641 -0.0275641 0 -0.0370623 -0.0370623 0 -0.0367484 -0.0367484 0 -0.0373762 -0.0373762 0
          -0.0183772 -0.0183772 0 0.00895339 0.00895339 0 0.00887491 0.00887491 0 0 0 0
          0.0179062 0.0179062 0 0 0 0 0 0 0 0.00903199 0.00903199 0
          0.017749 0.017749 0 0.026622 0.026622 0 -0.017749 -0.017749 0 -0.00887491 -0.00887491 0
          -0.00895339 -0.00895339 0 0.0183772 0.0183772 0 0.0275641 0.0275641 0 0.0182203 0.0182203 0
          0.0273283 0.0273283 0 0.0364344 0.0364344 0 0.00911046 0.00911046 0 0.0277994 0.0277994 0
          0.0370623 0.0370623 0 0.0373762 0.0373762 0 0.0367484 0.0367484 0 0.0268573 0.0268573 0
          0.027093 0.027093 0 0.0358065 0.0358065 0 0.0361205 0.0361205 0 0.0354925 0.0354925 0
          0.0180631 0.0180631 0 -0.00989581 -0.00989581 0 -0.00997443 -0.00997443 0 0 0 0
          -0.0197908 -0.0197908 0 0 0 0 0 0 0 0 0 0
          -0.00981736 -0.00981736 0 0 0 0 -0.0199477 -0.0199477 0 -0.0299194 -0.0299194 0
          -0.0201049 -0.0201049 0 -0.0301546 -0.0301546 0 -0.0402015 -0.0402015 0 -0.0100529 -0.0100529 0
          0.0199477 0.0199477 0 0.00997443 0.00997443 0 0.0201049 0.0201049 0 0.0197908 0.0197908 0
          0.0100529 0.0100529 0 0.0301546 0.0301546 0 0.0299194 0.0299194 0 0.0402015 0.0402015 0
          0.00989581 0.00989581 0 0.00981736 0.00981736 0 -0.0193195 -0.0193195 0 -0.0289773 -0.0289773 0
          -0.0194767 -0.0194767 0 -0.0191626 -0.0191626 0 -0.0292125 -0.0292125 0 -0.0389459 -0.0389459 0
          -0.00973874 -0.00973874 0 -0.00966029 -0.00966029 0 -0.0287415 -0.0287415 0 -0.0285062 -0.0285062 0
          -0.038318 -0.038318 0 -0.0380041 -0.0380041 0 -0.038632 -0.038632 0 -0.0296835 -0.0296835 0
          -0.0294483 -0.0294483 0 -0.0395737 -0.0395737 0 -0.0392598 -0.0392598 0 -0.0398876 -0.0398876 0
          -0.0196336 -0.0196336 0 0.00958167 0.00958167 0 0.00950321 0.00950321 0 0 0 0
          0.0191626 0.0191626 0 0 0 0 0 0 0 0.00966029 0.00966029 0
          0.0190054 0.0190054 0 0.0285062 0.0285062 0 -0.0190054 -0.0190054 0 -0.00950321 -0.00950321 0
          -0.00958167 -0.00958167 0 0.0196336 0.0196336 0 0.0294483 0.0294483 0 0.0194767 0.0194767 0
          0.0292125 0.0292125 0 0.0389459 0.0389459 0 0.00973874 0.00973874 0 0.0296835 0.0296835 0
          0.0395737 0.0395737 0 0.0398876 0.0398876 0 0.0392598 0.0392598 0 0.0287415 0.0287415 0
          0.0289773 0.0289773 0 0.038318 0.038318 0 0.038632 0.038632 0 0.0380041 0.0380041 0
          0.0193195 0.0193195 0 -0.0105241 -0.0105241 0 -0.0106027 -0.0106027 0 0 0 0
          -0.0210472 -0.0210472 0 0 0 0 0 0 0 0 0 0
          -0.0104457 -0.0104457 0 0 0 0 -0.0212041 -0.0212041 0 -0.0318034 -0.0318034 0
          -0.0213613 -0.0213613 0 -0.0320386 -0.0320386 0 -0.0427127 -0.0427127 0 -0.0106812 -0.0106812 0
          0.0212041 0.0212041 0 0.0106027 0.0106027 0 0.0213613 0.0213613 0 0.0210472 0.0210472 0
          0.0106812 0.0106812 0 0.0320386 0.0320386 0 0.0318034 0.0318034 0 0.0427127 0.0427127 0
          0.0105241 0.0105241 0 0.0104457 0.0104457 0 -0.0205759 -0.0205759 0 -0.0308614 -0.0308614 0
          -0.0207331 -0.0207331 0 -0.020419 -0.020419 0 -0.0310966 -0.0310966 0 -0.0414571 -0.0414571 0
          -0.010367 -0.010367 0 -0.0102886 -0.0102886 0 -0.0306256 -0.0306256 0 -0.0303904 -0.0303904 0
          -0.0408294 -0.0408294 0 -0.0405155 -0.0405155 0 -0.0411432 -0.0411432 0 -0.0315676 -0.0315676 0
          -0.0313324 -0.0313324 0 -0.0420849 -0.0420849 0 -0.041771 -0.041771 0 -0.0423988 -0.0423988 0
          -0.02089 -0.02089 0 0.01021 0.01021 0 0.0101315 0.0101315 0 0 0 0
          0.020419 0.020419 0 0 0 0 0 0 0 0.0102886 0.0102886 0
          0.0202618 0.0202618 0 0.0303904 0.0303904 0 -0.0202618 -0.0202618 0 -0.0101315 -0.0101315 0
          -0.01021 -0.01021 0 0.02089 0.02089 0 0.0313324 0.0313324 0 0.0207331 0.0207331 0
          0.0310966 0.0310966 0 0.0414571 0.0414571 0 0.010367 0.010367 0 0.0315676 0.0315676 0