<?xml version="1.0"?>
<VTKFile type="UnstructuredGrid" version="0.1" byte_order="LittleEndian">
  <UnstructuredGrid>
    <Piece NumberOfCells="6400" NumberOfPoints="3609">
      <PointData Vectors="Uh">
        <DataArray type="Float32" Name="Uh" NumberOfComponents="3" format="ascii">
          0.000177194 0.000532508 0 0.000206869 0.000720588 0 1.78222e-10 0.000520057 0 0.000354998 0.000540079 0
          2.07374e-10 0.00072302 0 2.37416e-10 0.000940575 0 1.47517e-10 0.000361492 0 0.000147316 0.000359061 0
          1.17336e-10 0.00021751 0 0.000414126 0.000742762 0 0.000622241 0.000760026 0 0.000472969 0.000960175 0
          0.000710325 0.000991939 0 0.000948785 0.00101881 0 0.000236275 0.00095281 0 -0.000414126 0.000742762 0
          -0.000206869 0.000720588 0 -0.000472968 0.000960175 0 -0.000354998 0.000540079 0 -0.000236274 0.00095281 0
          -0.000710325 0.000991939 0 -0.000622241 0.000760026 0 -0.000948784 0.00101881 0 -0.000177194 0.000532508 0
          -0.000147315 0.000359061 0 0.000174425 0.000138929 0 0.000264593 0.000156907 0 0.000235182 0.000238064 0
          0.00011296 5.39229e-05 0 0.00035489 0.000270732 0 0.000476382 0.000298455 0 0.000117034 0.000230253 0
          8.63818e-05 0.000116239 0 0.00017344 8.53836e-05 0 8.00882e-05 2.37523e-05 0 0.000240515 0.000113546 0
          0.000124408 6.20722e-05 0 0 0 0 0.000358098 0.000198664 0 0.000533605 0.000572249 0
          0.000444591 0.000399387 0 0.000713343 0.000599447 0 0.000594919 0.000441399 0 0.000831278 0.000801732 0
          0.000295306 0.000381687 0 -5.62043e-05 4.83135e-05 0 -2.58433e-05 -8.69804e-07 0 0 3.64553e-05 0
          -0.00011296 5.39229e-05 0 0 3.90503e-06 0 0 0 0 0 0.000118926 0
          -8.63817e-05 0.000116239 0 -5.56013e-05 1.53217e-05 0 -8.00882e-05 2.37522e-05 0 0 0 0
          0 0 0 0 0 0 0 0 0 5.56014e-05 1.53218e-05 0
          2.58434e-05 -8.69797e-07 0 0 0 0 0 0 0 0 0 0
          5.62044e-05 4.83135e-05 0 -0.000295306 0.000381687 0 -0.000444591 0.000399387 0 -0.000235182 0.000238064 0
          -0.000354889 0.000270732 0 -0.000476382 0.000298455 0 -0.000117034 0.000230253 0 -0.000533605 0.000572249 0
          -0.000713343 0.000599447 0 -0.000831278 0.000801732 0 -0.000594918 0.000441399 0 -0.00017344 8.53836e-05 0
          -0.000264593 0.000156907 0 -0.000240514 0.000113546 0 -0.000358098 0.000198664 0 -0.000124408 6.20721e-05 0
          -0.000174425 0.000138929 0 0.000409444 0.00291161 0 0.000437794 0.00333128 0 4.03272e-10 0.00289977 0
          0.000819255 0.00291871 0 4.30126e-10 0.00333363 0 4.55719e-10 0.00378162 0 3.76047e-10 0.00250851 0
          0.000380971 0.00250613 0 3.50009e-10 0.00213153 0 0.000875906 0.00335248 0 0.00131475 0.00336897 0
          0.000932313 0.00380037 0 0.00139929 0.00383083 0 0.00186736 0.0038566 0 0.000465974 0.00379334 0
          -0.000875905 0.00335248 0 -0.000437793 0.00333128 0 -0.000932312 0.00380037 0 -0.000819254 0.00291871 0
          -0.000465973 0.00379334 0 -0.00139929 0.00383083 0 -0.00131475 0.00336897 0 -0.00186736 0.0038566 0
          -0.000409443 0.00291161 0 -0.00038097 0.00250613 0 0.000647434 0.00181684 0 0.000972054 0.00183367 0
          0.00070502 0.00215067 0 0.0005896 0.00149743 0 0.00105836 0.00218177 0 0.0014128 0.00220808 0
          0.000352325 0.00214349 0 0.000323556 0.0017952 0 0.000885233 0.00152885 0 0.000798041 0.00123853 0
          0.00118198 0.00155544 0 0.00106562 0.00127983 0 0.00129764 0.00187455 0 0.0012297 0.00294949 0
          0.00114429 0.00254422 0 0.00164126 0.00297553 0 0.00152727 0.00258467 0 0.00175455 0.003409 0
          0.000762261 0.00252755 0 -0.000294611 0.00149017 0 -0.00026554 0.00119963 0 2.95738e-10 0.00147808 0
          -0.000589599 0.00149743 0 2.6537e-10 0.00120206 0 3.22803e-10 0.0017976 0 -0.000323556 0.0017952 0
          -0.000531411 0.00122151 0 -0.000798041 0.00123853 0 0.000531411 0.00122151 0 0.00026554 0.00119963 0
          0.000294611 0.00149017 0 -0.00076226 0.00252755 0 -0.00114429 0.00254422 0 -0.00070502 0.00215067 0
          -0.00105836 0.00218177 0 -0.0014128 0.00220808 0 -0.000352325 0.00214349 0 -0.0012297 0.00294949 0
          -0.00164126 0.00297553 0 -0.00175455 0.003409 0 -0.00152727 0.00258467 0 -0.000885232 0.00152885 0
          -0.000972053 0.00183367 0 -0.00118198 0.00155544 0 -0.00129763 0.00187455 0 -0.00106562 0.00127983 0
          -0.000647433 0.00181684 0 0.00063206 0.0071085 0 0.000659247 0.00775043 0 5.99987e-10 0.00709715 0
          0.00126448 0.00711532 0 6.22734e-10 0.00775269 0 6.43668e-10 0.00842178 0 5.78277e-10 0.00648247 0
          0.000604754 0.00648019 0 5.53758e-10 0.00588148 0 0.0013188 0.00777076 0 0.00197908 0.00778657 0
          0.00137289 0.00843975 0 0.00206013 0.00846896 0 0.00274845 0.00849367 0 0.000686265 0.00843301 0
          -0.0013188 0.00777076 0 -0.000659246 0.00775043 0 -0.00137289 0.00843975 0 -0.00126448 0.00711532 0
          -0.000686264 0.00843301 0 -0.00206013 0.00846896 0 -0.00197908 0.00778657 0 -0.00274845 0.00849367 0
          -0.000632059 0.0071085 0 -0.000604753 0.00648019 0 0.00109968 0.00534023 0 0.0016504 0.00535638 0
          0.00115492 0.00589984 0 0.0010442 0.00479446 0 0.00173319 0.00592967 0 0.00231254 0.00595491 0
          0.000577279 0.00589295 0 0.000549683 0.00531947 0 0.00156711 0.00482461 0 0.00148345 0.00430675 0
          0.00209112 0.00485012 0 0.00197948 0.00434637 0 0.00220207 0.00539559 0 0.00189753 0.00714483 0
          0.00181561 0.00651671 0 0.00253165 0.00716981 0 0.00242234 0.00655551 0 0.00264029 0.00782496 0
          0.00120982 0.00650073 0 -0.000521917 0.00478751 0 -0.00049403 0.00426945 0 5.0487e-10 0.00477591 0
          -0.0010442 0.00479446 0 4.80911e-10 0.00427178 0 5.308e-10 0.00532178 0 -0.000549682 0.00531947 0
          -0.000988376 0.00429043 0 -0.00148345 0.00430675 0 0.000988377 0.00429043 0 0.000494031 0.00426945 0
          0.000521918 0.00478751 0 -0.00120982 0.00650073 0 -0.00181561 0.00651671 0 -0.00115492 0.00589984 0
          -0.00173319 0.00592967 0 -0.00231254 0.00595491 0 -0.000577278 0.00589295 0 -0.00189752 0.00714483 0
          -0.00253165 0.00716981 0 -0.00264029 0.00782496 0 -0.00242234 0.00655551 0 -0.00156711 0.00482461 0
          -0.0016504 0.00535638 0 -0.00209112 0.00485012 0 -0.00220207 0.00539559 0 -0.00197948 0.00434637 0
          -0.00109968 0.00534023 0 0.000845451 0.0130488 0 0.000871498 0.0139038 0 7.65042e-10 0.0130379 0
          0.00169125 0.0130553 0 7.81665e-10 0.0139059 0 7.96853e-10 0.0147869 0 7.46199e-10 0.012209 0
          0.000819287 0.0122069 0 7.26659e-10 0.0113933 0 0.0017433 0.0139232 0 0.00261581 0.0139384 0
          0.00179511 0.0148041 0 0.00269345 0.0148321 0 0.00359284 0.0148558 0 0.00089738 0.0147977 0
          -0.0017433 0.0139232 0 -0.000871496 0.0139038 0 -0.00179511 0.0148041 0 -0.00169125 0.0130553 0
          -0.000897379 0.0147977 0 -0.00269345 0.0148321 0 -0.0026158 0.0139384 0 -0.00359284 0.0148558 0
          -0.00084545 0.0130488 0 -0.000819286 0.0122069 0 0.00153333 0.0106348 0 0.00230086 0.0106503 0
          0.00158627 0.0114109 0 0.00148015 0.00987199 0 0.0023802 0.0114395 0 0.00317519 0.0114637 0
          0.000792958 0.0114043 0 0.00076651 0.0106149 0 0.00222102 0.00990089 0 0.00214083 0.00916481 0
          0.00296296 0.00992534 0 0.00285595 0.0092028 0 0.00306931 0.0106879 0 0.00253767 0.0130836 0
          0.00245918 0.0122419 0 0.00338514 0.0131075 0 0.0032804 0.012279 0 0.00348923 0.0139752 0
          0.00163888 0.0122265 0 -0.000739896 0.00986532 0 -0.000713163 0.00912906 0 6.86662e-10 0.00985421 0
          -0.00148015 0.00987199 0 6.6634e-10 0.00913129 0 7.0767e-10 0.0106171 0 -0.000766509 0.0106149 0
          -0.00142664 0.00914917 0 -0.00214083 0.00916481 0 0.00142664 0.00914917 0 0.000713165 0.00912906 0
          0.000739897 0.00986532 0 -0.00163888 0.0122265 0 -0.00245918 0.0122419 0 -0.00158627 0.0114109 0
          -0.00238019 0.0114395 0 -0.00317519 0.0114637 0 -0.000792956 0.0114043 0 -0.00253767 0.0130836 0
          -0.00338514 0.0131075 0 -0.00348922 0.0139752 0 -0.0032804 0.012279 0 -0.00222102 0.00990089 0
          -0.00230086 0.0106503 0 -0.00296296 0.00992534 0 -0.00306931 0.0106879 0 -0.00285594 0.0092028 0
          -0.00153333 0.0106348 0 0.00104981 0.0206594 0 0.00107474 0.0217184 0 8.71239e-10 0.020649 0
          0.00209997 0.0206657 0 8.81532e-10 0.0217205 0 8.8918e-10 0.0228044 0 8.62344e-10 0.019615 0
          0.00102476 0.0196129 0 8.5236e-10 0.0185936 0 0.00214978 0.021737 0 0.00322551 0.0217515 0
          0.00219937 0.0228208 0 0.00329982 0.0228476 0 0.0044013 0.0228703 0 0.00109951 0.0228147 0
          -0.00214978 0.021737 0 -0.00107474 0.0217184 0 -0.00219937 0.0228208 0 -0.00209997 0.0206657 0
          -0.00109951 0.0228147 0 -0.00329982 0.0228476 0 -0.00322551 0.0217515 0 -0.0044013 0.0228703 0
          -0.00104981 0.0206594 0 -0.00102476 0.0196129 0 0.00194877 0.017627 0 0.002924 0.0176418 0
          0.00199946 0.0186104 0 0.00189784 0.0166562 0 0.00299997 0.0186378 0 0.00400151 0.0186609 0
          0.000999557 0.0186041 0 0.000974234 0.0176079 0 0.00284754 0.0166839 0 0.00277074 0.0157387 0
          0.00379829 0.0167073 0 0.0036958 0.0157751 0 0.00390013 0.0176778 0 0.00315072 0.0206927 0
          0.00307559 0.0196464 0 0.00420251 0.0207156 0 0.00410224 0.019682 0 0.00430213 0.0217867 0
          0.00204983 0.0196318 0 -0.000948746 0.0166498 0 -0.000923144 0.0157045 0 8.26559e-10 0.0166392 0
          -0.00189784 0.0166562 0 8.11764e-10 0.0157066 0 8.40133e-10 0.01761 0 -0.000974232 0.0176079 0
          -0.00184659 0.0157237 0 -0.00277074 0.0157387 0 0.00184659 0.0157237 0 0.000923146 0.0157045 0
          0.000948748 0.0166498 0 -0.00204983 0.0196318 0 -0.00307558 0.0196464 0 -0.00199946 0.0186104 0
          -0.00299996 0.0186378 0 -0.00400151 0.0186609 0 -0.000999555 0.0186041 0 -0.00315072 0.0206927 0
          -0.00420251 0.0207156 0 -0.00430213 0.0217867 0 -0.00410224 0.019682 0 -0.00284754 0.0166839 0
          -0.002924 0.0176418 0 -0.00379829 0.0167073 0 -0.00390013 0.0176778 0 -0.0036958 0.0157751 0
          -0.00194877 0.017627 0 0.00124534 0.0298689 0 0.00126918 0.0311231 0 9.15201e-10 0.029859 0
          0.00249101 0.0298749 0 9.17853e-10 0.0311251 0 9.16802e-10 0.0324031 0 9.15513e-10 0.0286287 0
          0.00122138 0.0286267 0 9.10179e-10 0.0274104 0 0.00253864 0.0311409 0 0.00380878 0.0311548 0
          0.00258605 0.0324188 0 0.00387983 0.0324444 0 0.00517461 0.0324661 0 0.00129286 0.0324129 0
          -0.00253864 0.0311409 0 -0.00126917 0.0311231 0 -0.00258605 0.0324188 0 -0.00249101 0.0298749 0
          -0.00129286 0.0324129 0 -0.00387983 0.0324444 0 -0.00380878 0.0311548 0 -0.00517461 0.0324661 0
          -0.00124533 0.0298689 0 -0.00122138 0.0286267 0 0.00234639 0.0262446 0 0.00352041 0.0262588 0
          0.00239488 0.0274266 0 0.00229767 0.0250748 0 0.00359308 0.0274527 0 0.0047923 0.0274749 0
          0.00119727 0.0274205 0 0.00117305 0.0262264 0 0.00344727 0.0251013 0 0.00337378 0.023956 0
          0.00459789 0.0251237 0 0.00449982 0.0239908 0 0.00469532 0.0262932 0 0.00373727 0.0299008 0
          0.00366541 0.0286588 0 0.00498454 0.0299227 0 0.00488864 0.0286928 0 0.0050798 0.0311885 0
          0.00244306 0.0286447 0 -0.00114866 0.0250687 0 -0.00112417 0.0239233 0 9.01732e-10 0.0250585 0
          -0.00229767 0.0250748 0 8.97554e-10 0.0239253 0 9.07279e-10 0.0262284 0 -0.00117305 0.0262264 0
          -0.00224863 0.0239417 0 -0.00337378 0.023956 0 0.00224863 0.0239417 0 0.00112417 0.0239233 0
          0.00114867 0.0250687 0 -0.00244306 0.0286447 0 -0.00366541 0.0286588 0 -0.00239488 0.0274266 0
          -0.00359308 0.0274527 0 -0.0047923 0.0274749 0 -0.00119727 0.0274205 0 -0.00373726 0.0299008 0
          -0.00498453 0.0299227 0 -0.0050798 0.0311885 0 -0.00488864 0.0286928 0 -0.00344727 0.0251013 0
          -0.00352041 0.0262588 0 -0.00459789 0.0251237 0 -0.00469532 0.0262932 0 -0.00449982 0.0239908 0
          -0.00234639 0.0262446 0 0.00143222 0.0406075 0 0.00145499 0.0420482 0 9.07497e-10 0.0405979 0
          0.00286477 0.0406132 0 9.03419e-10 0.0420501 0 8.98413e-10 0.0435135 0 9.11473e-10 0.03918 0
          0.00140934 0.0391781 0 9.14735e-10 0.0377736 0 0.00291027 0.0420652 0 0.00436621 0.0420784 0
          0.00295556 0.0435286 0 0.00443407 0.043553 0 0.00591356 0.0435737 0 0.00147761 0.0435229 0
          -0.00291027 0.0420652 0 -0.00145499 0.0420482 0 -0.00295555 0.0435286 0 -0.00286477 0.0406132 0
          -0.00147761 0.0435229 0 -0.00443406 0.043553 0 -0.00436621 0.0420784 0 -0.00591356 0.0435737 0
          -0.00143222 0.0406075 0 -0.00140933 0.0391781 0 0.00272659 0.0364173 0 0.00409069 0.0364309 0
          0.00277293 0.037789 0 0.00268002 0.0350572 0 0.00416013 0.037814 0 0.00554833 0.0378352 0
          0.0013863 0.0377832 0 0.00136315 0.0363999 0 0.00402078 0.0350825 0 0.00395054 0.0337459 0
          0.00536254 0.0351039 0 0.0052688 0.0337791 0 0.00545566 0.0364638 0 0.00429789 0.0406379 0
          0.00422924 0.0392088 0 0.005732 0.0406588 0 0.00564039 0.0392413 0 0.005823 0.0421106 0
          0.00281896 0.0391954 0 -0.00133984 0.0350514 0 -0.00131643 0.0337145 0 9.18488e-10 0.0350416 0
          -0.00268002 0.0350572 0 9.18468e-10 0.0337165 0 9.18155e-10 0.0364018 0 -0.00136315 0.0363999 0
          -0.00263315 0.0337322 0 -0.00395054 0.0337459 0 0.00263315 0.0337322 0 0.00131643 0.0337145 0
          0.00133985 0.0350514 0 -0.00281896 0.0391954 0 -0.00422924 0.0392088 0 -0.00277293 0.037789 0
          -0.00416013 0.037814 0 -0.00554833 0.0378352 0 -0.0013863 0.0377832 0 -0.00429789 0.0406379 0
          -0.005732 0.0406588 0 -0.005823 0.0421106 0 -0.00564039 0.0392413 0 -0.00402078 0.0350825 0
          -0.00409069 0.0364309 0 -0.00536254 0.0351039 0 -0.00545566 0.0364638 0 -0.0052688 0.0337791 0
          -0.00272659 0.0364173 0 0.00161066 0.0528066 0 0.00163239 0.0544255 0 8.45662e-10 0.0527975 0
          0.00322164 0.0528121 0 8.32934e-10 0.0544273 0 8.20023e-10 0.0560678 0 8.55497e-10 0.0512005 0
          0.00158882 0.0511987 0 8.66596e-10 0.0496144 0 0.00326506 0.0544417 0 0.00489837 0.0544543 0
          0.00330827 0.0560822 0 0.00496311 0.0561055 0 0.00661892 0.0561252 0 0.00165397 0.0560768 0
          -0.00326506 0.0544417 0 -0.00163239 0.0544255 0 -0.00330827 0.0560822 0 -0.00322164 0.0528121 0
          -0.00165397 0.0560768 0 -0.00496311 0.0561055 0 -0.00489837 0.0544543 0 -0.00661892 0.0561252 0
          -0.00161066 0.0528066 0 -0.00158882 0.0511987 0 0.00308975 0.0480761 0 0.00463541 0.0480891 0
          0.00313399 0.0496291 0 0.00304529 0.0465342 0 0.0047017 0.049653 0 0.00627039 0.0496732 0
          0.00156683 0.0496236 0 0.00154473 0.0480595 0 0.00456867 0.0465584 0 0.00450159 0.0450389 0
          0.00609302 0.0465789 0 0.00600351 0.0450707 0 0.00618192 0.0481205 0 0.00483318 0.0528357 0
          0.00476767 0.0512279 0 0.00644569 0.0528556 0 0.00635826 0.0512589 0 0.00653252 0.054485 0
          0.00317792 0.0512151 0 -0.00152248 0.0465287 0 -0.00150012 0.045009 0 8.83029e-10 0.0465194 0
          -0.00304529 0.0465342 0 8.90865e-10 0.0450109 0 8.74359e-10 0.0480613 0 -0.00154473 0.0480595 0
          -0.00300053 0.0450258 0 -0.00450159 0.0450389 0 0.00300053 0.0450258 0 0.00150013 0.045009 0
          0.00152248 0.0465287 0 -0.00317792 0.0512151 0 -0.00476767 0.0512279 0 -0.00313398 0.0496291 0
          -0.0047017 0.049653 0 -0.00627039 0.0496732 0 -0.00156683 0.0496236 0 -0.00483318 0.0528357 0
          -0.00644569 0.0528556 0 -0.00653252 0.054485 0 -0.00635825 0.0512589 0 -0.00456866 0.0465584 0
          -0.00463541 0.0480891 0 -0.00609302 0.0465789 0 -0.00618192 0.0481205 0 -0.00600351 0.0450707 0
          -0.00308975 0.0480761 0 0.00178085 0.0663997 0 0.00180156 0.0681884 0 7.21807e-10 0.066391 0
          0.00356202 0.0664048 0 7.03826e-10 0.0681901 0 6.82063e-10 0.0699995 0 7.40016e-10 0.0646231 0
          0.00176003 0.0646213 0 7.57754e-10 0.0628656 0 0.0036034 0.0682039 0 0.00540586 0.0682159 0
          0.00364458 0.0700132 0 0.00546756 0.0700354 0 0.00729149 0.0700542 0 0.00182213 0.070008 0
          -0.0036034 0.0682039 0 -0.00180156 0.0681884 0 -0.00364458 0.0700132 0 -0.00356201 0.0664048 0
          -0.00182213 0.070008 0 -0.00546756 0.0700354 0 -0.00540586 0.0682159 0 -0.00729149 0.0700542 0
          -0.00178085 0.0663997 0 -0.00176003 0.0646213 0 0.00343626 0.0611537 0 0.00515517 0.061166 0
          0.00347845 0.0628796 0 0.00339387 0.0594383 0 0.00521838 0.0629023 0 0.00695926 0.0629216 0
          0.00173907 0.0628743 0 0.00171799 0.0611378 0 0.00509151 0.0594614 0 0.00502754 0.0577674 0
          0.00679011 0.0594809 0 0.00670473 0.0577977 0 0.0068749 0.061196 0 0.00534373 0.0664274 0
          0.00528127 0.0646492 0 0.00712638 0.0664464 0 0.00704303 0.0646788 0 0.00720914 0.0682451 0
          0.00352034 0.064637 0 -0.00169677 0.059433 0 -0.00167545 0.0577389 0 7.91286e-10 0.0594242 0
          -0.00339386 0.0594383 0 8.07528e-10 0.0577406 0 7.74315e-10 0.0611396 0 -0.00171799 0.0611378 0
          -0.00335117 0.0577549 0 -0.00502753 0.0577674 0 0.00335117 0.0577549 0 0.00167545 0.0577389 0
          0.00169677 0.059433 0 -0.00352034 0.064637 0 -0.00528127 0.0646492 0 -0.00347845 0.0628796 0
          -0.00521838 0.0629023 0 -0.00695926 0.0629216 0 -0.00173906 0.0628743 0 -0.00534372 0.0664274 0
          -0.00712638 0.0664464 0 -0.00720914 0.0682451 0 -0.00704303 0.0646788 0 -0.00509151 0.0594614 0
          -0.00515516 0.061166 0 -0.00679011 0.0594809 0 -0.00687489 0.061196 0 -0.00670473 0.0577977 0
          -0.00343626 0.0611537 0 0.00194299 0.0813214 0 0.00196271 0.0832719 0 5.58305e-10 0.0813131 0
          0.00388628 0.0813263 0 5.38196e-10 0.0832735 0 5.16227e-10 0.0852438 0 5.81285e-10 0.0793824 0
          0.00192316 0.0793807 0 6.01169e-10 0.0774615 0 0.00392568 0.0832866 0 0.00588927 0.0832981 0
          0.00396488 0.0852568 0 0.005948 0.0852779 0 0.00793203 0.0852958 0 0.00198229 0.0852519 0
          -0.00392568 0.0832866 0 -0.00196271 0.0832719 0 -0.00396488 0.0852568 0 -0.00388628 0.0813263 0
          -0.00198228 0.0852519 0 -0.00594799 0.0852779 0 -0.00588926 0.0832981 0 -0.00793203 0.0852958 0
          -0.00194299 0.0813214 0 -0.00192316 0.0793807 0 0.00376652 0.0755842 0 0.00565054 0.0755959 0
          0.0038067 0.0774749 0 0.00372614 0.0737035 0 0.00571074 0.0774966 0 0.00761571 0.0775149 0
          0.0019032 0.0774699 0 0.00188313 0.0755691 0 0.0055899 0.0737255 0 0.00552895 0.0718651 0
          0.00745459 0.073744 0 0.00737325 0.071894 0 0.00753536 0.0756245 0 0.00583011 0.0813477 0
          0.00577064 0.0794072 0 0.00777485 0.0813658 0 0.00769549 0.0794354 0 0.00785365 0.0833259 0
          0.00384659 0.0793956 0 -0.00186291 0.0736984 0 -0.00184259 0.0718379 0 6.42104e-10 0.07369 0
          -0.00372614 0.0737035 0 6.63308e-10 0.0718396 0 6.2193e-10 0.0755707 0 -0.00188313 0.0755691 0
          -0.00368546 0.0718532 0 -0.00552895 0.0718651 0 0.00368546 0.0718532 0 0.0018426 0.0718379 0
          0.00186291 0.0736984 0 -0.00384659 0.0793956 0 -0.00577064 0.0794072 0 -0.0038067 0.0774749 0
          -0.00571074 0.0774966 0 -0.00761571 0.0775149 0 -0.0019032 0.0774699 0 -0.00583011 0.0813477 0
          -0.00777485 0.0813658 0 -0.00785364 0.0833259 0 -0.00769549 0.0794354 0 -0.0055899 0.0737255 0
          -0.00565054 0.0755959 0 -0.00745459 0.073744 0 -0.00753536 0.0756245 0 -0.00737325 0.071894 0
          -0.00376652 0.0755842 0 0.00209727 0.0975081 0 0.00211602 0.0996126 0 3.74255e-10 0.0975002 0
          0.00419483 0.0975128 0 3.48778e-10 0.0996141 0 3.25952e-10 0.101737 0 3.98596e-10 0.0954145 0
          0.00207841 0.095413 0 4.21734e-10 0.0933383 0 0.00423229 0.0996266 0 0.00634916 0.0996375 0
          0.00426956 0.10175 0 0.006405 0.10177 0 0.00854133 0.101787 0 0.00213463 0.101745 0
          -0.00423229 0.0996266 0 -0.00211602 0.0996126 0 -0.00426956 0.10175 0 -0.00419483 0.0975128 0
          -0.00213463 0.101745 0 -0.006405 0.10177 0 -0.00634916 0.0996375 0 -0.00854133 0.101787 0
          -0.00209726 0.0975081 0 -0.00207841 0.095413 0 0.00408092 0.0913034 0 0.00612212 0.0913146 0
          0.00411914 0.093351 0 0.0040425 0.0892653 0 0.00617939 0.0933716 0 0.00824054 0.0933891 0
          0.00205942 0.0933462 0 0.00204033 0.091289 0 0.00606442 0.0892862 0 0.00600642 0.0872675 0
          0.00808725 0.0893039 0 0.00800984 0.087295 0 0.0081641 0.0913417 0 0.00629291 0.0975331 0
          0.00623636 0.0954382 0 0.00839189 0.0975504 0 0.00831642 0.095465 0 0.00846681 0.099664 0
          0.00415709 0.0954272 0 -0.0020211 0.0892605 0 -0.00200176 0.0872416 0 4.69475e-10 0.0892525 0
          -0.00404249 0.0892653 0 4.92798e-10 0.0872433 0 4.45915e-10 0.0912906 0 -0.00204033 0.091289 0
          -0.00400379 0.0872562 0 -0.00600642 0.0872675 0 0.00400379 0.0872562 0 0.00200176 0.0872416 0
          0.0020211 0.0892605 0 -0.00415709 0.0954272 0 -0.00623636 0.0954382 0 -0.00411914 0.093351 0
          -0.00617939 0.0933716 0 -0.00824054 0.0933891 0 -0.00205942 0.0933462 0 -0.00629291 0.0975331 0
          -0.00839189 0.0975504 0 -0.00846681 0.099664 0 -0.00831642 0.095465 0 -0.00606442 0.0892862 0
          -0.00612212 0.0913146 0 -0.00808725 0.0893039 0 -0.0081641 0.0913417 0 -0.00800984 0.087295 0
          -0.00408092 0.0913034 0 0.00224388 0.114898 0 0.00226169 0.117149 0 1.70623e-10 0.11489 0
          0.00448805 0.114902 0 1.44026e-10 0.11715 0 1.15981e-10 0.119419 0 1.96499e-10 0.112657 0
          0.00222597 0.112656 0 2.2293e-10 0.110433 0 0.00452363 0.117162 0 0.00678614 0.117172 0
          0.00455901 0.11943 0 0.00683916 0.119449 0 0.00912018 0.119466 0 0.00227936 0.119426 0
          -0.00452362 0.117162 0 -0.00226169 0.117149 0 -0.00455901 0.11943 0 -0.00448805 0.114902 0
          -0.00227936 0.119426 0 -0.00683916 0.119449 0 -0.00678614 0.117172 0 -0.00912018 0.119466 0
          -0.00224388 0.114898 0 -0.00222597 0.112656 0 0.00437984 0.108249 0 0.00657048 0.108259 0
          0.00441616 0.110445 0 0.00434333 0.106061 0 0.0066249 0.110465 0 0.00883451 0.110482 0
          0.00220793 0.110441 0 0.00218979 0.108235 0 0.00651566 0.106081 0 0.00646053 0.103911 0
          0.00868887 0.106098 0 0.0086153 0.103938 0 0.00876189 0.108285 0 0.00673273 0.114922 0
          0.00667902 0.11268 0 0.00897828 0.114938 0 0.00890659 0.112705 0 0.00904942 0.117197 0
          0.0044522 0.112669 0 -0.00217152 0.106056 0 -0.00215314 0.103887 0 2.74905e-10 0.106049 0
          -0.00434333 0.106061 0 3.00831e-10 0.103888 0 2.49825e-10 0.108236 0 -0.00218979 0.108235 0
          -0.00430654 0.103901 0 -0.00646053 0.103911 0 0.00430654 0.103901 0 0.00215314 0.103887 0
          0.00217152 0.106056 0 -0.0044522 0.112669 0 -0.00667902 0.11268 0 -0.00441616 0.110445 0
          -0.0066249 0.110465 0 -0.00883451 0.110482 0 -0.00220793 0.110441 0 -0.00673273 0.114922 0
          -0.00897828 0.114938 0 -0.00904942 0.117197 0 -0.00890659 0.112705 0 -0.00651566 0.106081 0
          -0.00657048 0.108259 0 -0.00868887 0.106098 0 -0.00876189 0.108285 0 -0.0086153 0.103938 0
          -0.00437984 0.108249 0 0.00238302 0.13343 0 0.00239991 0.135819 0 0 0.133423 0
          0.00476633 0.133434 0 0 0.135821 0 0 0.138227 0 0 0.13105 0
          0.00236604 0.131049 0 0 0.128686 0 0.00480007 0.135832 0 0.00720079 0.135842 0
          0.00483362 0.138238 0 0.00725105 0.138257 0 0.00966934 0.138272 0 0.00241667 0.138234 0
          -0.00480007 0.135832 0 -0.00239991 0.135819 0 -0.00483362 0.138238 0 -0.00476633 0.133434 0
          -0.00241667 0.138234 0 -0.00725105 0.138257 0 -0.00720079 0.135842 0 -0.00966934 0.138272 0
          -0.00238302 0.13343 0 -0.00236604 0.131049 0 0.00466368 0.126359 0 0.00699622 0.126369 0
          0.00469814 0.128697 0 0.00462903 0.124029 0 0.00704785 0.128716 0 0.00939842 0.128732 0
          0.00234893 0.128693 0 0.00233172 0.126346 0 0.00694419 0.124048 0 0.00689188 0.121736 0
          0.00926022 0.124064 0 0.00919039 0.12176 0 0.00932951 0.126393 0 0.00715014 0.133452 0
          0.00709919 0.131071 0 0.00953479 0.133468 0 0.00946679 0.131095 0 0.00960225 0.135866 0
          0.00473233 0.131061 0 -0.00231437 0.124025 0 -0.00229693 0.121712 0 0 0.124017 0
          -0.00462903 0.124029 0 0 0.121714 0 0 0.126347 0 -0.00233172 0.126346 0
          -0.00459412 0.121725 0 -0.00689188 0.121736 0 0.00459412 0.121725 0 0.00229693 0.121712 0
          0.00231437 0.124025 0 -0.00473233 0.131061 0 -0.00709919 0.131071 0 -0.00469814 0.128697 0
          -0.00704785 0.128716 0 -0.00939842 0.128732 0 -0.00234893 0.128693 0 -0.00715014 0.133452 0
          -0.00953479 0.133468 0 -0.00960225 0.135866 0 -0.00946679 0.131095 0 -0.00694419 0.124048 0
          -0.00699622 0.126369 0 -0.00926022 0.124064 0 -0.00932951 0.126393 0 -0.00919039 0.12176 0
          -0.00466368 0.126359 0 0.0025149 0.153045 0 0.00253089 0.155566 0 -2.28686e-10 0.153039 0
          0.00503007 0.153049 0 -2.50732e-10 0.155568 0 -2.70911e-10 0.158105 0 -2.05938e-10 0.150533 0
          0.00249881 0.150532 0 -1.83659e-10 0.148036 0 0.00506202 0.155578 0 0.00759369 0.155588 0
          0.00509378 0.158116 0 0.00764128 0.158133 0 0.0101896 0.158147 0 0.00254675 0.158112 0
          -0.00506202 0.155578 0 -0.00253089 0.155566 0 -0.00509378 0.158116 0 -0.00503007 0.153049 0
          -0.00254675 0.158112 0 -0.00764128 0.158133 0 -0.00759369 0.155588 0 -0.0101896 0.158147 0
          -0.0025149 0.153045 0 -0.00249881 0.150532 0 0.00493283 0.145574 0 0.00739993 0.145584 0
          0.00496548 0.148047 0 0.0049 0.14311 0 0.00744884 0.148065 0 0.00993304 0.14808 0
          0.0024826 0.148043 0 0.00246629 0.145562 0 0.00735062 0.143128 0 0.00730103 0.14068 0
          0.00980208 0.143143 0 0.0097359 0.140703 0 0.00986775 0.145607 0 0.00754572 0.153067 0
          0.00749748 0.150553 0 0.0100622 0.153081 0 0.00999781 0.150576 0 0.0101261 0.15561 0
          0.00499787 0.150544 0 -0.00244986 0.143106 0 -0.00243333 0.140658 0 -1.39684e-10 0.143099 0
          -0.0049 0.14311 0 -1.16438e-10 0.140659 0 -1.62726e-10 0.145563 0 -0.00246629 0.145562 0
          -0.0048669 0.14067 0 -0.00730103 0.14068 0 0.0048669 0.14067 0 0.00243333 0.140658 0
          0.00244986 0.143106 0 -0.00499787 0.150544 0 -0.00749748 0.150553 0 -0.00496548 0.148047 0
          -0.00744884 0.148065 0 -0.00993304 0.14808 0 -0.0024826 0.148043 0 -0.00754572 0.153067 0
          -0.0100622 0.153081 0 -0.0101261 0.15561 0 -0.00999781 0.150576 0 -0.00735062 0.143128 0
          -0.00739993 0.145584 0 -0.00980209 0.143143 0 -0.00986775 0.145607 0 -0.0097359 0.140703 0
          -0.00493283 0.145574 0 0.00263969 0.173687 0 0.00265481 0.176332 0 -3.8928e-10 0.17368 0
          0.00527965 0.17369 0 -4.09489e-10 0.176334 0 -4.27229e-10 0.178995 0 -3.71297e-10 0.17105 0
          0.00262448 0.171048 0 -3.5222e-10 0.168427 0 0.00530985 0.176344 0 0.00796543 0.176353 0
          0.00533988 0.179005 0 0.00801041 0.179021 0 0.0106818 0.179034 0 0.00266981 0.179001 0
          -0.00530985 0.176344 0 -0.00265481 0.176332 0 -0.00533988 0.179005 0 -0.00527965 0.17369 0
          -0.00266981 0.179001 0 -0.00801042 0.179021 0 -0.00796543 0.176353 0 -0.0106818 0.179034 0
          -0.00263969 0.173687 0 -0.00262448 0.171048 0 0.00518767 0.165837 0 0.00778217 0.165846 0
          0.00521856 0.168437 0 0.00515661 0.163245 0 0.00782845 0.168454 0 0.0104391 0.168468 0
          0.00260914 0.168433 0 0.00259372 0.165826 0 0.00773552 0.163262 0 0.00768859 0.160686 0
          0.0103152 0.163276 0 0.0102526 0.160708 0 0.0103774 0.165868 0 0.00792008 0.173707 0
          0.00787445 0.171069 0 0.0105613 0.173721 0 0.0105004 0.17109 0 0.0106217 0.176374 0
          0.0052492 0.17106 0 -0.00257817 0.163241 0 -0.00256252 0.160665 0 -3.11608e-10 0.163235 0
          -0.00515661 0.163245 0 -2.92067e-10 0.160666 0 -3.32394e-10 0.165827 0 -0.00259372 0.165826 0
          -0.00512528 0.160676 0 -0.00768859 0.160686 0 0.00512528 0.160676 0 0.00256252 0.160665 0
          0.00257817 0.163241 0 -0.0052492 0.17106 0 -0.00787445 0.171069 0 -0.00521856 0.168437 0
          -0.00782845 0.168454 0 -0.0104391 0.168468 0 -0.00260915 0.168433 0 -0.00792008 0.173707 0
          -0.0105613 0.173721 0 -0.0106217 0.176374 0 -0.0105004 0.17109 0 -0.00773552 0.163262 0
          -0.00778217 0.165846 0 -0.0103152 0.163276 0 -0.0103774 0.165868 0 -0.0102526 0.160708 0
          -0.00518767 0.165837 0 0.0027576 0.195298 0 0.00277187 0.198062 0 -5.27021e-10 0.195292 0
          0.00551546 0.195302 0 -5.41117e-10 0.198063 0 -5.55649e-10 0.200841 0 -5.10745e-10 0.192543 0
          0.00274324 0.192542 0 -4.95278e-10 0.189801 0 0.00554397 0.198072 0 0.0083166 0.198081 0
          0.00557231 0.20085 0 0.00835905 0.200865 0 0.0111466 0.200878 0 0.00278603 0.200846 0
          -0.00554398 0.198072 0 -0.00277188 0.198062 0 -0.00557231 0.20085 0 -0.00551546 0.195302 0
          -0.00278603 0.200846 0 -0.00835905 0.200865 0 -0.0083166 0.198081 0 -0.0111466 0.200878 0
          -0.0027576 0.195298 0 -0.00274324 0.192542 0 0.0054286 0.187091 0 0.00814355 0.1871 0
          0.00545778 0.189811 0 0.00539925 0.184378 0 0.00818726 0.189827 0 0.0109175 0.18984 0
          0.00272876 0.189807 0 0.00271419 0.18708 0 0.00809947 0.184394 0 0.00805513 0.181696 0
          0.0108005 0.184408 0 0.0107413 0.181717 0 0.0108592 0.18712 0 0.00827378 0.195317 0
          0.0082307 0.192561 0 0.0110329 0.195331 0 0.0109754 0.192582 0 0.0110899 0.198101 0
          0.00548671 0.192553 0 -0.00269949 0.184375 0 -0.00268471 0.181677 0 -4.62334e-10 0.184369 0
          -0.00539925 0.184378 0 -4.4524e-10 0.181678 0 -4.7808e-10 0.187081 0 -0.00271419 0.18708 0
          -0.00536966 0.181688 0 -0.00805513 0.181696 0 0.00536965 0.181688 0 0.00268471 0.181677 0
          0.00269949 0.184375 0 -0.00548671 0.192553 0 -0.0082307 0.192561 0 -0.00545778 0.189811 0
          -0.00818726 0.189827 0 -0.0109175 0.18984 0 -0.00272876 0.189807 0 -0.00827378 0.195317 0
          -0.0110329 0.195331 0 -0.0110899 0.198101 0 -0.0109754 0.192582 0 -0.00809947 0.184394 0