<?xml version="1.0"?>
<VTKFile type="UnstructuredGrid" version="0.1" byte_order="LittleEndian">
  <UnstructuredGrid>
    <Piece NumberOfCells="128" NumberOfPoints="81">
      <PointData Vectors="Uh">
        <DataArray type="Float32" Name="Uh" NumberOfComponents="3" format="ascii">
          -0.282743 -0.137425 0 -0.705994 -0.324304 0 -0.414644 -0.203558 0 0.450328 0.0869212 0
          -0.301244 -0.183087 0 0 0 0 -0.271495 -0.217452 0 0.0860686 0.0126699 0
          -0.00423738 -0.00423738 0 0.251028 0.0890886 0 0.916002 0.383823 0 0 0 0
          1 1 0 0 0 0 -1 -1 0 0.270865 0.126384 0
          0.545349 0.239051 0 0 0 0 0.151872 0.151872 0 1 1 0
          -1 -1 0 -0.511954 -0.511954 0 0 0 0 0.00473239 -0.0853723 0
          -0.284223 -0.284223 0 0.563809 0.471955 0 0.402891 0.421506 0 0.609368 0.343755 0
          0.506385 0.506385 0 0.467574 0.308187 0 -0.183603 0.149856 0 0.329232 0.237636 0
          0.450328 0.450328 0 0.355608 0.413257 0 0.349444 0.349444 0 0.0271539 0.320542 0
          0.142016 0.256673 0 0.213107 0.213107 0 -0.122156 0.205711 0 0.715094 0.23376 0
          0.599446 0.255337 0 -0.101434 0.0482153 0 -0.195703 0.000561795 0 -0.107001 0.0146364 0
          0.564011 0.235273 0 0.235273 0.564011 0 0.255337 0.599446 0 0.343755 0.609368 0
          0.0869212 0.450328 0 0.308187 0.467574 0 0.149856 -0.183603 0 0.237636 0.329232 0
          0.0126699 0.0860686 0 0.23376 0.715094 0 0.383823 0.916002 0 0.0482153 -0.101434 0
          0.0146364 -0.107001 0 0 0 0 0.000561795 -0.195703 0 0.413257 0.355608 0
          0.421506 0.402891 0 0.320542 0.0271539 0 0.205711 -0.122156 0 0.256673 0.142016 0
          0.471955 0.563809 0 -0.0853723 0.00473239 0 0.239051 0.545349 0 -0.203558 -0.414644 0
          -0.183087 -0.301244 0 0 0 0 -0.217452 -0.271495 0 0.126384 0.270865 0
          0 0 0 -1 -1 0 1 1 0 0.0890886 0.251028 0
          -0.324304 -0.705994 0 0 0 0 -1 -1 0 1 1 0
          -0.137425 -0.282743 0
        </DataArray>
      </PointData>
      <Points>
        <DataArray type="Float32" Name="Coordinates" NumberOfComponents="3" format="ascii">
          0.75 0.375 0 0.875 0.375 0 0.75 0.5 0 0.75 0.25 0
          0.875 0.5 0 1 0.5 0 0.625 0.5 0 0.625 0.375 0
          0.5 0.5 0 0.875 0.25 0 0.875 0.125 0 1 0.25 0
          1 0.125 0 1 0 0 1 0.375 0 0.875 0.75 0
          0.875 0.625 0 1 0.75 0 0.75 0.75 0 1 0.625 0
          1 0.875 0 0.875 0.875 0 1 1 0 0.75 0.625 0
          0.625 0.625 0 0.375 0.25 0 0.375 0.125 0 0.5 0.25 0
          0.25 0.25 0 0.5 0.125 0 0.5 0 0 0.5 0.375 0
          0.375 0.375 0 0.25 0.125 0 0.125 0.125 0 0.25 0 0
          0.125 0 0 0 0 0 0.375 0 0 0.75 0.125 0
          0.625 0.125 0 0.75 0 0 0.625 0 0 0.875 0 0
          0.625 0.25 0 0.25 0.625 0 0.125 0.625 0 0.25 0.5 0
          0.25 0.75 0 0.125 0.5 0 0 0.5 0 0.375 0.5 0
          0.375 0.625 0 0.125 0.75 0 0.125 0.875 0 0 0.75 0
          0 0.875 0 0 1 0 0 0.625 0 0.125 0.25 0
          0.125 0.375 0 0 0.25 0 0 0.375 0 0 0.125 0
          0.25 0.375 0 0.625 0.75 0 0.625 0.875 0 0.5 0.75 0
          0.5 0.875 0 0.5 1 0 0.5 0.625 0 0.75 0.875 0
          0.75 1 0 0.875 1 0 0.625 1 0 0.25 0.875 0
          0.375 0.875 0 0.25 1 0 0.375 1 0 0.125 1 0
          0.375 0.75 0
        </DataArray>
      </Points>
      <Cells>
        <DataArray type="Int32" Name="connectivity" NumberOfComponents="1" format="ascii">
          0 1 2 0 3 1 4 1 5 4 2 1
          6 7 2 6 8 7 0 7 3 0 2 7
          9 10 11 9 3 10 12 10 13 12 11 10
          14 1 11 14 5 1 9 1 3 9 11 1
          15 16 17 15 18 16 19 16 5 19 17 16
          20 21 17 20 22 21 15 21 18 15 17 21
          23 24 2 23 18 24 6 24 8 6 2 24
          4 16 2 4 5 16 23 16 18 23 2 16
          25 26 27 25 28 26 29 26 30 29 27 26
          31 32 27 31 8 32 25 32 28 25 27 32
          33 34 35 33 28 34 36 34 37 36 35 34
          38 26 35 38 30 26 33 26 28 33 35 26
          39 40 41 39 3 40 42 40 30 42 41 40
          43 10 41 43 13 10 39 10 3 39 41 10
          44 7 27 44 3 7 31 7 8 31 27 7
          29 40 27 29 30 40 44 40 3 44 27 40
          45 46 47 45 48 46 49 46 50 49 47 46
          51 52 47 51 8 52 45 52 48 45 47 52
          53 54 55 53 48 54 56 54 57 56 55 54
          58 46 55 58 50 46 53 46 48 53 55 46
          59 60 61 59 28 60 62 60 50 62 61 60
          63 34 61 63 37 34 59 34 28 59 61 34
          64 32 47 64 28 32 51 32 8 51 47 32
          49 60 47 49 50 60 64 60 28 64 47 60
          65 66 67 65 18 66 68 66 69 68 67 66
          70 24 67 70 8 24 65 24 18 65 67 24
          71 21 72 71 18 21 73 21 22 73 72 21
          74 66 72 74 69 66 71 66 18 71 72 66
          75 76 77 75 48 76 78 76 69 78 77 76
          79 54 77 79 57 54 75 54 48 75 77 54
          80 52 67 80 48 52 70 52 8 70 67 52
          68 76 67 68 69 76 80 76 48 80 67 76
        </DataArray>
        <DataArray type="Int32" Name="offsets" NumberOfComponents="1" format="ascii">
          3 6 9 12 15 18 21 24 27 30 33 36
          39 42 45 48 51 54 57 60 63 66 69 72
          75 78 81 84 87 90 93 96 99 102 105 108
          111 114 117 120 123 126 129 132 135 138 141 144
          147 150 153 156 159 162 165 168 171 174 177 180
          183 186 189 192 195 198 201 204 207 210 213 216
          219 222 225 228 231 234 237 240 243 246 249 252
          255 258 261 264 267 270 273 276 279 282 285 288
          291 294 297 300 303 306 309 312 315 318 321 324
          327 330 333 336 339 342 345 348 351 354 357 360
          363 366 369 372 375 378 381 384
        </DataArray>
        <DataArray type="UInt8" Name="types" NumberOfComponents="1" format="ascii">
          5 5 5 5 5 5 5 5 5 5 5 5
          5 5 5 5 5 5 5 5 5 5 5 5
          5 5 5 5 5 5 5 5 5 5 5 5
          5 5 5 5 5 5 5 5 5 5 5 5
          5 5 5 5 5 5 5 5 5 5 5 5
          5 5 5 5 5 5 5 5 5 5 5 5
          5 5 5 5 5 5 5 5 5 5 5 5
          5 5 5 5 5 5 5 5 5 5 5 5
          5 5 5 5 5 5 5 5 5 5 5 5
          5 5 5 5 5 5 5 5 5 5 5 5
          5 5 5 5 5 5 5 5
        </DataArray>
      </Cells>
    </Piece>
  </UnstructuredGrid>
</VTKFile>
