<?xml version="1.0"?>
<VTKFile type="UnstructuredGrid" version="0.1" byte_order="LittleEndian">
  <UnstructuredGrid>
    <Piece NumberOfCells="25600" NumberOfPoints="13617">
      <PointData Vectors="Uh">
        <DataArray type="Float32" Name="Uh" NumberOfComponents="3" format="ascii">
          0.000197858 0.00064376 0 9.89031e-05 0.000638033 0 0.000182622 0.000545021 0 0.00021305 0.000746266 0
          9.1273e-05 0.000543079 0 4.42267e-10 0.000539884 0 0.000274084 0.00055333 0 0.000296942 0.000648229 0
          0.00036575 0.000560377 0 0.000106495 0.000744355 0 0.000114067 0.000854437 0 5.20131e-10 0.000741191 0
          5.5793e-10 0.000855063 0 5.97145e-10 0.00097269 0 4.80509e-10 0.000638659 0 7.5911e-05 0.000372119 0
          8.36173e-05 0.000451883 0 3.6388e-10 0.000368883 0 0.000151927 0.000374103 0 4.02503e-10 0.000452508 0
          3.24287e-10 0.000296735 0 6.81695e-05 0.000296108 0 2.85566e-10 0.000228348 0 0.000167303 0.000457678 0
          0.000251159 0.000462217 0 0.000533505 0.000774727 0 0.000571305 0.000884698 0 0.000426515 0.000761464 0
          0.000640742 0.000786726 0 0.000456751 0.000875246 0 0.000486918 0.000992803 0 0.00039617 0.000659022 0
          0.000495622 0.00066855 0 0.000686065 0.000900427 0 0.000801107 0.000914895 0 0.000731294 0.00101791 0
          0.000853845 0.0010361 0 0.000976725 0.00105304 0 0.000608985 0.00100598 0 0.000228179 0.000860113 0
          0.0003424 0.000864535 0 0.000243271 0.000977721 0 0.000365018 0.000985889 0 0.000121609 0.000975831 0
          0.000319699 0.000754494 0 -0.000319698 0.000754494 0 -0.000342398 0.000864535 0 -0.000426514 0.000761464 0
          -0.000213049 0.000746266 0 -0.00045675 0.000875246 0 -0.000486917 0.000992803 0 -0.000396169 0.000659022 0
          -0.000296941 0.000648229 0 -0.000365749 0.000560377 0 -0.000228178 0.000860113 0 -0.000114066 0.000854437 0
          -0.00024327 0.000977721 0 -0.000121608 0.000975831 0 -0.000365017 0.000985889 0 -0.000686064 0.000900427 0
          -0.000571304 0.000884698 0 -0.000731292 0.00101791 0 -0.000640741 0.000786726 0 -0.000608984 0.00100598 0
          -0.000853844 0.0010361 0 -0.000801105 0.000914895 0 -0.000976724 0.00105304 0 -0.000533504 0.000774727 0
          -0.000495621 0.00066855 0 -0.000167302 0.000457678 0 -8.36165e-05 0.000451883 0 -0.000182621 0.000545021 0
          -0.000151926 0.000374103 0 -9.12721e-05 0.000543079 0 -0.000274083 0.00055333 0 -0.000251158 0.000462217 0
          -7.59102e-05 0.000372118 0 -6.81689e-05 0.000296108 0 -0.000106494 0.000744355 0 -9.89021e-05 0.000638033 0
          -0.000197857 0.00064376 0 0.000226689 0.000153253 0 0.000265612 0.000202514 0 0.000180323 0.000139584 0
          0.00027374 0.000165716 0 0.000211643 0.000192631 0 0.000242787 0.000249427 0 0.000148934 9.79542e-05 0
          0.000187536 0.000107609 0 0.00011734 5.99639e-05 0 0.000320085 0.000218667 0 0.000374969 0.000233553 0
          0.000366292 0.000275413 0 0.000428538 0.000293946 0 0.000490917 0.000311192 0 0.000304319 0.000263056 0
          0.000105214 0.000176857 0 0.000158205 0.000181497 0 0.00012088 0.000233639 0 8.94486e-05 0.000123907 0
          0.000181642 0.000242163 0 6.03698e-05 0.000231626 0 5.25232e-05 0.000170938 0 0.000134655 0.000132382 0
          0.000110951 8.70864e-05 0 0.000133635 5.6465e-05 0 0.000159703 7.08952e-05 0 0.000180376 8.50034e-05 0
          8.64313e-05 2.95362e-05 0 0.00021384 0.000103403 0 0.000248277 0.000120868 0 0.000148397 7.30012e-05 0
          0.000108951 4.1498e-05 0 0.000105232 4.62789e-05 0 4.91116e-05 1.98469e-05 0 0.000128978 6.36264e-05 0
          6.85979e-05 3.89609e-05 0 0 0 0 0.000188552 9.11456e-05 0 0.000321336 0.000184278 0
          0.000267651 0.000138713 0 0.000369084 0.000201602 0 0.000308515 0.000159445 0 0.000429941 0.000254493 0
          0.000227192 0.000123711 0 0.00050404 0.000498672 0 0.00058885 0.00051331 0 0.000549731 0.000585827 0
          0.000458257 0.000415366 0 0.000642083 0.000604202 0 0.000734716 0.000621303 0 0.000457608 0.000573739 0
          0.000419505 0.00048275 0 0.000535493 0.000433828 0 0.000482062 0.000358201 0 0.000612949 0.000451004 0
          0.000551942 0.000379179 0 0.000673874 0.000534242 0 0.000748216 0.00080501 0 0.000695221 0.000698918 0
          0.000856004 0.000822029 0 0.000795416 0.000719766 0 0.000916426 0.000935644 0 0.000595283 0.00068437 0
          0.000228101 0.000382519 0 0.000204953 0.000306608 0 0.000304549 0.000389674 0 0.00027373 0.000317646 0
          0.000335195 0.000473119 0 0.000136443 0.000301986 0 0.000412323 0.000343453 0 0.00034288 0.000327414 0
          0.000381245 0.000403161 0 -4.26397e-05 2.12844e-05 0 -2.114e-05 1.64696e-05 0 -5.792e-05 4.58078e-05 0
          -2.74161e-05 2.09116e-06 0 -2.89419e-05 4.43417e-05 0 1.33664e-10 4.126e-05 0 -8.75024e-05 5.35905e-05 0
          -6.3969e-05 2.43223e-05 0 -0.00011734 5.99638e-05 0 -1.37984e-05 1.80281e-06 0 -6.51711e-06 -6.17403e-06 0
          0 -7.15829e-07 0 0 -4.71989e-06 0 0 0 0 0 1.74203e-05 0
          -4.46515e-05 0.000121982 0 -3.67319e-05 7.70599e-05 0 2.0831e-10 0.000118711 0 -8.94482e-05 0.000123907 0
          1.70655e-10 7.77914e-05 0 2.46585e-10 0.000171586 0 -5.25227e-05 0.000170938 0 -7.37234e-05 8.27693e-05 0
          -0.000110951 8.70863e-05 0 -7.10225e-05 2.10062e-05 0 -3.3111e-05 4.22618e-06 0 -5.55645e-05 1.12387e-05 0
          -8.64311e-05 2.95361e-05 0 -2.74285e-05 1.83649e-06 0 0 0 0 -8.64539e-05 3.3583e-05 0
          -0.000108951 4.14979e-05 0 -4.26895e-05 1.27195e-05 0 -4.91115e-05 1.98469e-05 0 0 0 0
          0 0 0 0 0 0 0 0 0 -1.35486e-05 -3.20704e-06 0
          -1.96236e-05 -3.07543e-06 0 0 0 0 0 0 0 0 0 0
          -4.17198e-05 7.65468e-06 0 4.17199e-05 7.65471e-06 0 1.96237e-05 -3.07541e-06 0 5.55646e-05 1.12388e-05 0
          2.74163e-05 2.09117e-06 0 2.74286e-05 1.83651e-06 0 0 0 0 8.64542e-05 3.35831e-05 0
          6.39692e-05 2.43223e-05 0 1.35487e-05 -3.20703e-06 0 6.51717e-06 -6.17403e-06 0 0 0 0
          0 0 0 0 0 0 4.26896e-05 1.27196e-05 0 3.31111e-05 4.22621e-06 0
          0 0 0 0 0 0 0 0 0 7.10227e-05 2.10063e-05 0
          7.37238e-05 8.27693e-05 0 3.67322e-05 7.70599e-05 0 5.79202e-05 4.58078e-05 0 2.89422e-05 4.43417e-05 0
          8.75027e-05 5.35906e-05 0 4.46519e-05 0.000121982 0 1.37985e-05 1.80282e-06 0 2.11402e-05 1.64696e-05 0
          4.26399e-05 2.12845e-05 0 -0.000381244 0.00040316 0 -0.000342879 0.000327414 0 -0.000304549 0.000389673 0
          -0.000458256 0.000415366 0 -0.000273729 0.000317646 0 -0.000242786 0.000249427 0 -0.000335194 0.000473119 0
          -0.000419504 0.00048275 0 -0.000412323 0.000343453 0 -0.000482062 0.000358201 0 -0.000366291 0.000275413 0
          -0.000428537 0.000293946 0 -0.000490916 0.000311192 0 -0.000304319 0.000263056 0 -0.000136442 0.000301986 0
          -0.000204952 0.000306608 0 -0.00012088 0.000233639 0 -0.000181642 0.000242163 0 -6.03693e-05 0.000231626 0
          -0.000228101 0.000382519 0 -0.000595282 0.000684369 0 -0.00069522 0.000698918 0 -0.00054973 0.000585827 0
          -0.000642082 0.000604202 0 -0.000734715 0.000621303 0 -0.000457607 0.000573739 0 -0.000748215 0.00080501 0
          -0.000856003 0.000822029 0 -0.000916425 0.000935644 0 -0.000795415 0.000719766 0 -0.000535492 0.000433828 0
          -0.00058885 0.00051331 0 -0.000612948 0.000451004 0 -0.000673873 0.000534242 0 -0.000551941 0.000379179 0
          -0.000504039 0.000498672 0 -0.000227192 0.000123711 0 -0.000267651 0.000138713 0 -0.000180376 8.50032e-05 0
          -0.00027374 0.000165716 0 -0.000213839 0.000103403 0 -0.000248277 0.000120868 0 -0.000148397 7.30011e-05 0
          -0.000187536 0.000107609 0 -0.000321335 0.000184277 0 -0.000374969 0.000233553 0 -0.000369083 0.000201602 0
          -0.000429941 0.000254493 0 -0.000308515 0.000159444 0 -0.000105232 4.62788e-05 0 -0.000159703 7.0895e-05 0
          -0.000128978 6.36263e-05 0 -0.000188551 9.11455e-05 0 -6.85978e-05 3.89608e-05 0 -0.000133634 5.64649e-05 0
          -0.000134654 0.000132382 0 -0.000158204 0.000181497 0 -0.000180322 0.000139584 0 -0.000211643 0.000192631 0
          -0.000148934 9.79541e-05 0 -0.000105214 0.000176857 0 -0.000320084 0.000218666 0 -0.000265612 0.000202514 0
          -0.000226688 0.000153253 0 0.00043577 0.00321069 0 0.000217865 0.00320523 0 0.000421194 0.00299305 0
          0.000450314 0.00343197 0 0.000210574 0.00299122 0 1.04929e-09 0.00298818 0 0.000631896 0.00300096 0
          0.000653769 0.00321494 0 0.00084274 0.00300765 0 0.000225134 0.00343016 0 0.000232387 0.00365871 0
          1.12337e-09 0.00342713 0 1.15958e-09 0.00365932 0 1.19613e-09 0.00389512 0 1.08613e-09 0.00320584 0
          0.000195938 0.00258148 0 0.000203267 0.00278086 0 9.74354e-10 0.00257842 0 0.000391923 0.00258331 0
          1.01159e-09 0.00278147 0 9.36514e-10 0.00238637 0 0.000188594 0.00238576 0 8.99099e-10 0.00219799 0
          0.000406575 0.00278635 0 0.000609976 0.00279062 0 0.00112655 0.0034592 0 0.00116281 0.00368768 0
          0.000900979 0.0034465 0 0.00135235 0.0034707 0 0.000929978 0.00367863 0 0.000958915 0.00391438 0
          0.000871891 0.00322525 0 0.0010902 0.00323435 0 0.00139585 0.00370277 0 0.00162916 0.00371665 0
          0.00143925 0.00393846 0 0.00167978 0.00395592 0 0.00192064 0.00397217 0 0.00119897 0.00392702 0
          0.000464814 0.00366415 0 0.000697335 0.00366837 0 0.000479283 0.00389994 0 0.000719028 0.00390776 0
          0.000239618 0.00389813 0 0.000675575 0.00343984 0 -0.000675573 0.00343984 0 -0.000697333 0.00366837 0
          -0.000900976 0.0034465 0 -0.000450312 0.00343197 0 -0.000929976 0.00367863 0 -0.000958913 0.00391438 0
          -0.000871889 0.00322525 0 -0.000653767 0.00321494 0 -0.000842738 0.00300765 0 -0.000464812 0.00366414 0
          -0.000232385 0.00365871 0 -0.00047928 0.00389993 0 -0.000239616 0.00389813 0 -0.000719026 0.00390776 0
          -0.00139584 0.00370277 0 -0.00116281 0.00368768 0 -0.00143925 0.00393846 0 -0.00135234 0.0034707 0
          -0.00119896 0.00392702 0 -0.00167978 0.00395592 0 -0.00162916 0.00371665 0 -0.00192064 0.00397217 0
          -0.00112654 0.0034592 0 -0.0010902 0.00323435 0 -0.000406573 0.00278635 0 -0.000203265 0.00278086 0
          -0.000421192 0.00299305 0 -0.000391921 0.00258331 0 -0.000210572 0.00299122 0 -0.000631894 0.00300096 0
          -0.000609974 0.00279062 0 -0.000195937 0.00258148 0 -0.000188592 0.00238576 0 -0.000225132 0.00343016 0
          -0.000217863 0.00320523 0 -0.000435768 0.00321069 0 0.000833084 0.0018798 0 0.000870107 0.00204964 0
          0.000666207 0.00186683 0 0.0010002 0.00189154 0 0.000695813 0.0020404 0 0.000725355 0.00221766 0
          0.000636512 0.00170438 0 0.000795982 0.00171367 0 0.000606754 0.00154564 0 0.00104461 0.00206504 0
          0.00121939 0.00207921 0 0.00108892 0.00224224 0 0.00127107 0.00226007 0 0.00145355 0.00227666 0
          0.000907018 0.00223057 0 0.000347729 0.00202561 0 0.000521709 0.00202992 0 0.000362501 0.00220291 0
          0.000332926 0.001852 0 0.000543857 0.0022109 0 0.000181227 0.00220107 0 0.000173845 0.00202006 0
          0.000499495 0.00186003 0 0.000477233 0.00169385 0 0.000866252 0.00142298 0 0.00101131 0.0014373 0
          0.000911022 0.00157048 0 0.000821387 0.00127921 0 0.00106352 0.00158848 0 0.00121636 0.00160525 0
          0.000758769 0.00155868 0 0.000721476 0.00140742 0 0.00095895 0.00129731 0 0.000906475 0.00116108 0
          0.00109685 0.00131416 0 0.00103685 0.00118172 0 0.00115666 0.00145784 0 0.00116756 0.00190945 0
          0.00111562 0.00174339 0 0.00133526 0.00192613 0 0.00127587 0.00176383 0 0.00139447 0.00209955 0
          0.000955658 0.00172915 0 0.00122113 0.00282538 0 0.00142534 0.00283941 0 0.00126499 0.00303198 0
          0.00117718 0.00262244 0 0.00147648 0.00304962 0 0.0016883 0.00306604 0 0.00105375 0.00302042 0
          0.00101722 0.00281014 0 0.00137404 0.00264017 0 0.00132263 0.0024446 0 0.00157123 0.00265668 0
          0.00151245 0.00246483 0 0.00162983 0.00285953 0 0.00157839 0.00348825 0 0.00152752 0.00326347 0
          0.00180477 0.00350458 0 0.0017466 0.00328349 0 0.00186277 0.00373657 0 0.00130872 0.00324952 0
          0.00058799 0.00259126 0 0.000565957 0.00239556 0 0.000784199 0.00259798 0 0.000754809 0.00240599 0
          0.000813501 0.00280099 0 0.000377228 0.00239127 0 0.0011331 0.0024305 0 0.000943851 0.00241518 0
          0.000980573 0.00261082 0 -0.000288272 0.00138313 0 -0.000144115 0.00137752 0 -0.000303197 0.00153073 0
          -0.000273314 0.00123926 0 -0.000151574 0.00152887 0 7.48705e-10 0.00152576 0 -0.000454903 0.00153881 0
          -0.000432526 0.00138749 0 -0.000606752 0.00154564 0 -0.000136632 0.00123738 0 -0.000129133 0.00110098 0
          6.73259e-10 0.00123426 0 6.34607e-10 0.0011016 0 7.10573e-10 0.00137815 0 -0.000166438 0.00185015 0
          -0.000159017 0.00168394 0 8.23881e-10 0.00184706 0 -0.000332925 0.001852 0 7.86038e-10 0.00168455 0
          8.61292e-10 0.00202068 0 -0.000173843 0.00202006 0 -0.000318077 0.00168951 0 -0.000477232 0.00169385 0
          -0.000684069 0.00126735 0 -0.000646584 0.00113104 0 -0.000546992 0.00125425 0 -0.000821386 0.00127921 0
          -0.000516987 0.00112165 0 -0.000576904 0.00139807 0 -0.000721474 0.00140742 0 -0.000776386 0.00114668 0
          -0.000906474 0.00116108 0 -0.000258309 0.00110662 0 -0.000387585 0.001111 0 -0.00041008 0.00124738 0
          0.000410081 0.00124738 0 0.000387586 0.001111 0 0.000546993 0.00125425 0 0.000273315 0.00123926 0
          0.000516988 0.00112165 0 0.000576905 0.00139808 0 0.000432527 0.00138749 0 0.00025831 0.00110662 0
          0.000129134 0.00110098 0 0.000776388 0.00114668 0 0.000646585 0.00113104 0 0.00068407 0.00126735 0
          0.000318078 0.00168951 0 0.000159019 0.00168394 0 0.000303199 0.00153073 0 0.000151576 0.00152887 0
          0.000454904 0.00153881 0 0.00016644 0.00185015 0 0.000136633 0.00123738 0 0.000144116 0.00137752 0
          0.000288273 0.00138313 0 -0.000980571 0.00261082 0 -0.000943849 0.00241518 0 -0.000784197 0.00259798 0
          -0.00117718 0.00262244 0 -0.000754807 0.00240598 0 -0.000725354 0.00221766 0 -0.000813499 0.00280099 0
          -0.00101721 0.00281014 0 -0.0011331 0.0024305 0 -0.00132263 0.0024446 0 -0.00108892 0.00224224 0
          -0.00127106 0.00226007 0 -0.00145354 0.00227666 0 -0.000907017 0.00223057 0 -0.000377226 0.00239127 0
          -0.000565955 0.00239556 0 -0.000362499 0.00220291 0 -0.000543855 0.0022109 0 -0.000181225 0.00220107 0
          -0.000587988 0.00259126 0 -0.00130871 0.00324952 0 -0.00152751 0.00326347 0 -0.00126499 0.00303198 0
          -0.00147648 0.00304962 0 -0.0016883 0.00306604 0 -0.00105375 0.00302042 0 -0.00157839 0.00348825 0
          -0.00180477 0.00350458 0 -0.00186277 0.00373657 0 -0.0017466 0.00328349 0 -0.00137404 0.00264017 0
          -0.00142534 0.00283941 0 -0.00157123 0.00265668 0 -0.00162983 0.00285953 0 -0.00151245 0.00246483 0
          -0.00122113 0.00282538 0 -0.000955656 0.00172915 0 -0.00111562 0.00174339 0 -0.00091102 0.00157048 0
          -0.0010002 0.00189154 0 -0.00106352 0.00158848 0 -0.00121636 0.00160525 0 -0.000758767 0.00155868 0
          -0.000795981 0.00171367 0 -0.00116756 0.00190945 0 -0.00121939 0.00207921 0 -0.00133526 0.00192613 0
          -0.00139446 0.00209955 0 -0.00127587 0.00176383 0 -0.000958949 0.00129731 0 -0.00101131 0.0014373 0
          -0.00109684 0.00131416 0 -0.00115666 0.00145784 0 -0.00103685 0.00118172 0 -0.000866251 0.00142298 0
          -0.000499494 0.00186003 0 -0.000521708 0.00202992 0 -0.000666206 0.00186683 0 -0.000695811 0.0020404 0
          -0.000636511 0.00170438 0 -0.000347728 0.00202561 0 -0.0010446 0.00206504 0 -0.000870105 0.00204964 0
          -0.000833082 0.0018798 0 0.000663926 0.00764081 0 0.000331944 0.00763557 0 0.000649949 0.00730905 0
          0.000677873 0.00797606 0 0.000324952 0.0073073 0 1.60359e-09 0.00730438 0 0.000975026 0.00731663 0
          0.000996001 0.00764488 0 0.00130024 0.00732305 0 0.000338914 0.00797432 0 0.000345869 0.00831655 0
          1.66776e-09 0.00797142 0 1.69884e-09 0.00831713 0 1.73072e-09 0.0086663 0 1.63524e-09 0.00763616 0
          0.000310916 0.00666826 0 0.000317945 0.00698252 0 1.53845e-09 0.00666533 0 0.000621877 0.00667002 0
          1.57057e-09 0.0069831 0 1.50493e-09 0.00635811 0 0.000303872 0.00635752 0 1.4724e-09 0.00605442 0
          0.000635929 0.00698778 0 0.000954005 0.00699187 0 0.00169543 0.00800217 0 0.0017302 0.00834433 0
          0.00135609 0.00798999 0 0.00203499 0.0080132 0 0.00138389 0.00833565 0 0.00141164 0.00868477 0
          0.0013282 0.00765477 0 0.00166058 0.0076635 0 0.0020767 0.00835879 0 0.00242348 0.0083721 0
          0.00211832 0.00870786 0 0.00247201 0.00872459 0 0.00282603 0.00874018 0 0.00176486 0.00869689 0
          0.000691776 0.00832176 0 0.00103778 0.00832581 0 0.000705649 0.00867092 0 0.00105858 0.00867842 0
          0.000352802 0.00866919 0 0.00101691 0.00798361 0 -0.00101691 0.00798361 0 -0.00103777 0.00832581 0
          -0.00135609 0.00798999 0 -0.00067787 0.00797606 0 -0.00138389 0.00833565 0 -0.00141164 0.00868477 0
          -0.00132819 0.00765477 0 -0.000995998 0.00764488 0 -0.00130024 0.00732305 0 -0.000691773 0.00832176 0
          -0.000345866 0.00831655 0 -0.000705645 0.00867092 0 -0.000352799 0.00866919 0 -0.00105857 0.00867842 0
          -0.0020767 0.00835879 0 -0.0017302 0.00834433 0 -0.00211831 0.00870786 0 -0.00203499 0.0080132 0
          -0.00176486 0.00869689 0 -0.00247201 0.00872459 0 -0.00242348 0.0083721 0 -0.00282602 0.00874018 0
          -0.00169542 0.00800217 0 -0.00166057 0.0076635 0 -0.000635926 0.00698778 0 -0.000317942 0.00698252 0
          -0.000649946 0.00730905 0 -0.000621874 0.00667002 0 -0.000324949 0.0073073 0 -0.000975023 0.00731663 0
          -0.000954002 0.00699187 0 -0.000310913 0.00666826 0 -0.000303869 0.00635752 0 -0.000338911 0.00797432 0
          -0.000331941 0.00763557 0 -0.000663923 0.00764081 0 0.00141397 0.0055032 0 0.00144949 0.00578911 0
          0.00113092 0.00549075 0 0.00169725 0.00551446 0 0.00115932 0.00578024 0 0.00118766 0.00607328 0
          0.00110244 0.00521193 0 0.00137838 0.00522084 0 0.00107389 0.00493666 0 0.00173985 0.00580389 0
          0.0020305 0.00581748 0 0.00178236 0.00609686 0 0.00208007 0.00611395 0 0.0023781 0.00612987 0
          0.00148489 0.00608566 0 0.000579488 0.00576606 0 0.000869345 0.0057702 0 0.000593657 0.00605913 0
          0.000565288 0.00547653 0 0.000890589 0.0060668 0 0.000296806 0.00605736 0 0.000289724 0.00576074 0
          0.000848035 0.00548423 0 0.000826679 0.00520182 0 0.00156875 0.00469601 0 0.00183088 0.00470974 0
          0.0016117 0.00496049 0 0.0015257 0.00443511 0 0.00188097 0.00497776 0 0.00215057 0.00499385 0
          0.00134268 0.00494917 0 0.0013069 0.00468108 0 0.00178064 0.00445247 0 0.00173029 0.00419879 0
          0.0020359 0.00446864 0 0.00197833 0.0042186 0 0.0020933 0.00472945 0 0.00198078 0.00553164 0
          0.00193095 0.00524936 0 0.00226463 0.00554764 0 0.00220766 0.00526896 0 0.00232143 0.00583698 0
          0.00165452 0.00523569 0 0.00190917 0.00702521 0 0.00222803 0.00703866 0 0.00195123 0.00734638 0
          0.00186702 0.00670755 0 0.00227708 0.00736329 0 0.00260325 0.00737904 0 0.00162562 0.0073353 0
          0.00159058 0.00701059 0 0.00217883 0.00672455 0 0.00212952 0.00641396 0 0.00249097 0.00674039 0
          0.0024346 0.00643336 0 0.00254717 0.00705796 0 0.0023748 0.00803002 0 0.00232601 0.00769142 0
          0.00271493 0.00804569 0 0.00265915 0.00771062 0 0.00277054 0.0083912 0 0.00199316 0.00767804 0
          0.000932919 0.00667764 0 0.000911786 0.00636693 0 0.0012441 0.00668409 0 0.00121591 0.00637692 0
          0.0012722 0.00700182 0 0.000607783 0.00636281 0 0.00182473 0.00640044 0 0.00152022 0.00638574 0
          0.00155544 0.00669641 0 -0.000522448 0.00465778 0 -0.000261203 0.00465241 0 -0.000536767 0.00492236 0
          -0.000508098 0.00439678 0 -0.000268359 0.00492058 0 1.33702e-09 0.0049176 0 -0.000805255 0.00493011 0
          -0.000783787 0.00466196 0 -0.00107388 0.00493666 0 -0.000254025 0.00439498 0 -0.000246832 0.00414115 0
          1.26734e-09 0.00439199 0 1.23154e-09 0.00414175 0 1.30188e-09 0.004653 0 -0.000282618 0.00547475 0
          -0.0002755 0.00519232 0 1.40531e-09 0.00547179 0 -0.000565285 0.00547653 0 1.37074e-09 0.00519291 0
          1.43835e-09 0.00576133 0 -0.000289722 0.00576074 0 -0.000551041 0.00519766 0 -0.000826676 0.00520182 0
          -0.00127101 0.00442373 0 -0.00123504 0.00416997 0 -0.00101655 0.00441115 0 -0.0015257 0.00443511 0
          -0.000987762 0.00416097 0 -0.00104525 0.00467212 0 -0.0013069 0.00468108 0 -0.00148252 0.00418498 0
          -0.00173028 0.00419879 0 -0.000493705 0.00414656 0 -0.000740672 0.00415076 0 -0.000762253 0.00440457 0
          0.000762256 0.00440457 0 0.000740675 0.00415076 0 0.00101655 0.00441115 0 0.000508101 0.00439678 0
          0.000987764 0.00416097 0 0.00104525 0.00467212 0 0.000783789 0.00466196 0 0.000493707 0.00414656 0
          0.000246834 0.00414115 0 0.00148252 0.00418498 0 0.00123504 0.00416997 0 0.00127101 0.00442373 0
          0.000551044 0.00519766 0 0.000275502 0.00519232 0 0.000536769 0.00492236 0 0.000268362 0.00492058 0
          0.000805258 0.00493011 0 0.000282621 0.00547475 0 0.000254028 0.00439498 0 0.000261206 0.00465241 0
          0.000522451 0.00465778 0 -0.00155544 0.00669641 0 -0.00152022 0.00638574 0 -0.0012441 0.00668409 0
          -0.00186701 0.00670755 0 -0.00121591 0.00637692 0 -0.00118766 0.00607328 0 -0.0012722 0.00700182 0
          -0.00159058 0.00701059 0 -0.00182473 0.00640044 0 -0.00212952 0.00641396 0 -0.00178235 0.00609686 0
          -0.00208006 0.00611395 0 -0.0023781 0.00612987 0 -0.00148489 0.00608566 0 -0.00060778 0.00636281 0
          -0.000911783 0.00636693 0 -0.000593654 0.00605913 0 -0.000890586 0.0060668 0 -0.000296803 0.00605736 0
          -0.000932916 0.00667764 0 -0.00199315 0.00767804 0 -0.00232601 0.00769142 0 -0.00195122 0.00734638 0
          -0.00227707 0.00736329 0 -0.00260324 0.00737904 0 -0.00162562 0.0073353 0 -0.0023748 0.00803002 0
          -0.00271493 0.00804569 0 -0.00277054 0.0083912 0 -0.00265915 0.00771062 0 -0.00217883 0.00672455 0
          -0.00222803 0.00703866 0 -0.00249097 0.00674039 0 -0.00254717 0.00705796 0 -0.00243459 0.00643336 0
          -0.00190916 0.00702521 0 -0.00165452 0.00523569 0 -0.00193095 0.00524936 0 -0.0016117 0.00496049 0
          -0.00169725 0.00551446 0 -0.00188097 0.00497776 0 -0.00215056 0.00499385 0 -0.00134267 0.00494917 0
          -0.00137838 0.00522084 0 -0.00198078 0.00553164 0 -0.0020305 0.00581748 0 -0.00226463 0.00554764 0
          -0.00232142 0.00583698 0 -0.00220766 0.00526896 0 -0.00178063 0.00445247 0 -0.00183088 0.00470974 0
          -0.0020359 0.00446864 0 -0.00209329 0.00472945 0 -0.00197833 0.0042186 0 -0.00156875 0.00469601 0
          -0.000848032 0.00548423 0 -0.000869342 0.0057702 0 -0.00113092 0.00549075 0 -0.00115932 0.00578024 0
          -0.00110243 0.00521193 0 -0.000579485 0.00576606 0 -0.00173985 0.00580389 0 -0.00144948 0.00578911 0
          -0.00141397 0.0055032 0 0.000882616 0.0138577 0 0.000441289 0.0138526 0 0.000869224 0.0134165 0
          0.000895977 0.0143021 0 0.00043459 0.0134148 0 2.06921e-09 0.013412 0 0.00130394 0.0134238 0
          0.00132403 0.0138616 0 0.00173878 0.0134299 0 0.000447967 0.0143005 0 0.000454629 0.0147516 0
          2.12174e-09 0.0142977 0 2.14838e-09 0.0147522 0 2.17418e-09 0.01521 0 2.09607e-09 0.0138532 0
          0.000421141 0.012556 0 0.000427876 0.0129804 0 2.01654e-09 0.0125532 0 0.000842326 0.0125577 0
          2.04368e-09 0.0129809 0 1.99076e-09 0.0121356 0 0.000414391 0.012135 0 1.96316e-09 0.0117213 0
          0.00085579 0.0129854 0 0.00128379 0.0129893 0 0.00224067 0.0143272 0 0.00227398 0.0147783 0
          0.00179229 0.0143155 0 0.00268928 0.0143377 0 0.00181893 0.0147699 0 0.0018455 0.0152277 0
          0.00176557 0.013871 0 0.00220728 0.0138794 0 0.00272923 0.0147921 0 0.00318475 0.0148049 0
          0.0027691 0.0152498 0 0.00323124 0.0152659 0 0.0036937 0.0152808 0 0.00230719 0.0152393 0
          0.000909296 0.0147566 0 0.00136405 0.0147605 0 0.000922585 0.0152145 0 0.00138398 0.0152216 0
          0.000461271 0.0152128 0 0.00134407 0.0143094 0 -0.00134406 0.0143094 0 -0.00136405 0.0147605 0
          -0.00179228 0.0143155 0 -0.000895973 0.0143021 0 -0.00181892 0.0147699 0 -0.0018455 0.0152277 0
          -0.00176556 0.013871 0 -0.00132403 0.0138616 0 -0.00173878 0.0134299 0 -0.000909292 0.0147566 0
          -0.000454625 0.0147516 0 -0.000922581 0.0152145 0 -0.000461267 0.0152128 0 -0.00138397 0.0152216 0
          -0.00272923 0.0147921 0 -0.00227398 0.0147783 0 -0.00276909 0.0152498 0 -0.00268927 0.0143377 0
          -0.00230718 0.0152393 0 -0.00323124 0.0152659 0 -0.00318475 0.0148049 0 -0.00369369 0.0152808 0
          -0.00224067 0.0143272 0 -0.00220728 0.0138794 0 -0.000855786 0.0129854 0 -0.000427872 0.0129804 0
          -0.00086922 0.0134165 0 -0.000842322 0.0125577 0 -0.000434586 0.0134148 0 -0.00130393 0.0134238 0
          -0.00128379 0.0129893 0 -0.000421137 0.012556 0 -0.000414387 0.012135 0 -0.000447963 0.0143005 0
          -0.000441285 0.0138526 0 -0.000882611 0.0138577 0 0.00197097 0.0109466 0 0.00200501 0.0113438 0
          0.00157653 0.0109347 0 0.00236564 0.0109574 0 0.00160375 0.0113353 0 0.0016309 0.0117394 0
          0.00154922 0.0105443 0 0.00193686 0.0105528 0 0.00152186 0.0101573 0 0.00240647 0.011358 0
          0.0028082 0.011371 0 0.00244721 0.011762 0 0.00285571 0.0117784 0 0.00326453 0.0117936 0
          0.00203894 0.0117512 0 0.000801704 0.0113217 0 0.00120267 0.0113257 0 0.000815283 0.0117258 0
          0.000788094 0.0109211 0 0.00122303 0.0117332 0 0.00040762 0.0117241 0 0.000400833 0.0113166 0
          0.00118224 0.0109285 0 0.00116177 0.0105346 0 0.00224247 0.00980345 0 0.00261687 0.00981662 0
          0.00228364 0.0101801 0 0.0022012 0.00943021 0 0.00266489 0.0101967 0 0.00304645 0.0102121 0
          0.00190264 0.0101693 0 0.00186834 0.00978913 0 0.00256871 0.00944686 0 0.00252043 0.00908055 0
          0.00293653 0.00946236 0 0.00288134 0.00909954 0 0.00299155 0.00983551 0 0.00276055 0.0109739 0
          0.00271279 0.0105802 0 0.00315578 0.0109892 0 0.00310118 0.0105989 0 0.00321022 0.0113897 0
          0.00232469 0.0105671 0 0.00256872 0.0130213 0 0.00299749 0.0130342 0 0.00260902 0.0134523 0
          0.00252833 0.0125936 0 0.00304449 0.0134685 0 0.00348027 0.0134836 0 0.00217379 0.0134417 0
          0.00214022 0.0130073 0 0.00295035 0.0126099 0 0.0029031 0.0121891 0 0.00337269 0.0126251 0
          0.00331867 0.0122077 0 0.00342654 0.0130527 0 0.00313812 0.0143538 0 0.00309138 0.0139061 0
          0.00358727 0.0143688 0 0.00353383 0.0139245 0 0.00364055 0.0148232 0 0.00264919 0.0138933 0
          0.00126359 0.012565 0 0.00124334 0.012144 0 0.00168499 0.0125712 0 0.00165798 0.0121536 0
          0.00171192 0.0129989 0 0.00082882 0.0121401 0 0.00248781 0.0121761 0 0.0020728 0.012162 0
          0.00210655 0.012583 0 -0.00074703 0.0097668 0 -0.000373494 0.00976165 0 -0.000760755 0.0101436 0
          -0.000733274 0.00939347 0 -0.000380354 0.0101419 0 1.85133e-09 0.010139 0 -0.00114124 0.010151 0
          -0.00112066 0.00977081 0 -0.00152185 0.0101573 0 -0.000366613 0.00939175 0 -0.000359717 0.00902529 0
          1.79206e-09 0.00938888 0 1.76113e-09 0.00902587 0 1.82173e-09 0.00976222 0 -0.000394021 0.0109194 0
          -0.000387198 0.0105255 0 1.9083e-09 0.0109165 0 -0.00078809 0.0109211 0 1.88024e-09 0.0105261 0
          1.9365e-09 0.0113172 0 -0.000400829 0.0113166 0 -0.000774438 0.0105306 0 -0.00116177 0.0105346 0
          -0.00183393 0.00941931 0 -0.00179945 0.00905292 0 -0.00146689 0.00940725 0 -0.0022012 0.00943021 0
          -0.0014393 0.00904428 0 -0.0014944 0.00978055 0 -0.00186833 0.00978913 0 -0.0021598 0.00906731 0
          -0.00252043 0.00908055 0 -0.000719475 0.00903047 0 -0.00107933 0.0090345 0 -0.00110001 0.00940093 0
          0.00110002 0.00940093 0 0.00107933 0.0090345 0 0.0014669 0.00940725 0 0.000733277 0.00939347 0
          0.0014393 0.00904429 0 0.00149441 0.00978055 0 0.00112066 0.00977081 0 0.000719478 0.00903047 0
          0.00035972 0.00902529 0 0.00215981 0.00906731 0 0.00179945 0.00905292 0 0.00183393 0.00941931 0
          0.000774442 0.0105306 0 0.000387202 0.0105255 0 0.000760759 0.0101436 0 0.000380358 0.0101419 0
          0.00114124 0.010151 0 0.000394025 0.0109194 0 0.000366617 0.00939175 0 0.000373498 0.00976165 0
          0.000747034 0.0097668 0 -0.00210654 0.012583 0 -0.00207279 0.012162 0 -0.00168499 0.0125712 0
          -0.00252833 0.0125936 0 -0.00165797 0.0121536 0 -0.0016309 0.0117394 0 -0.00171191 0.0129989 0
          -0.00214022 0.0130073 0 -0.00248781 0.0121761 0 -0.0029031 0.0121891 0 -0.0024472 0.011762 0
          -0.0028557 0.0117784 0 -0.00326452 0.0117936 0 -0.00203894 0.0117512 0 -0.000828816 0.0121401 0
          -0.00124334 0.012144 0 -0.000815279 0.0117258 0 -0.00122302 0.0117332 0 -0.000407616 0.0117241 0
          -0.00126359 0.012565 0 -0.00264919 0.0138933 0 -0.00309137 0.0139061 0 -0.00260902 0.0134523 0
          -0.00304448 0.0134685 0 -0.00348027 0.0134836 0 -0.00217379 0.0134417 0 -0.00313811 0.0143538 0
          -0.00358727 0.0143688 0 -0.00364054 0.0148232 0 -0.00353383 0.0139245 0 -0.00295035 0.0126099 0
          -0.00299749 0.0130342 0 -0.00337269 0.0126251 0 -0.00342654 0.0130527 0 -0.00331867 0.0122077 0
          -0.00256872 0.0130213 0 -0.00232468 0.0105671 0 -0.00271279 0.0105802 0 -0.00228364 0.0101801 0
          -0.00236564 0.0109574 0 -0.00266488 0.0101967 0 -0.00304645 0.0102121 0 -0.00190263 0.0101693 0
          -0.00193685 0.0105528 0 -0.00276055 0.0109739 0 -0.0028082 0.011371 0 -0.00315578 0.0109892 0
          -0.00321021 0.0113897 0 -0.00310117 0.0105989 0 -0.0025687 0.00944686 0 -0.00261687 0.00981662 0
          -0.00293653 0.00946236 0 -0.00299155 0.00983551 0 -0.00288134 0.00909954 0 -0.00224246 0.00980345 0