<?xml version="1.0"?>
<VTKFile type="UnstructuredGrid" version="0.1" byte_order="LittleEndian">
  <UnstructuredGrid>
    <Piece NumberOfCells="2048" NumberOfPoints="1089">
      <PointData Vectors="Uh">
        <DataArray type="Float32" Name="Uh" NumberOfComponents="3" format="ascii">
          -0.502733 -0.197079 0 -0.426716 -0.183907 0 -0.435364 -0.17011 0 -0.507979 -0.201104 0
          -0.335389 -0.150066 0 -0.238167 -0.12855 0 -0.534496 -0.199506 0 -0.575683 -0.207753 0
          -0.636139 -0.240511 0 -0.463134 -0.210058 0 -0.449759 -0.215099 0 -0.409895 -0.207365 0
          -0.427533 -0.23386 0 -0.406652 -0.240223 0 -0.345446 -0.17443 0 -0.0194316 -0.0479345 0
          -0.196202 -0.103515 0 0.0789112 -0.0225059 0 -0.126423 -0.0792763 0 -0.0930933 -0.0767099 0
          0.260016 0.0361082 0 0.178079 0.00788245 0 0.435266 0.0859394 0 -0.305321 -0.130785 0
          -0.421138 -0.165844 0 -0.585198 -0.23439 0 -0.378448 -0.135274 0 -0.56441 -0.201337 0
          -0.600975 -0.296155 0 -0.41668 -0.152341 0 -0.21861 -0.0737623 0 -0.64277 -0.239534 0
          -0.707451 -0.29076 0 -0.354736 -0.160914 0 -0.325559 -0.224116 0 -0.0478096 0.0125395 0
          -0.0158217 0.0184794 0 0 0 0 -0.138987 -0.0342849 0 -0.453073 -0.198168 0
          -0.44142 -0.167341 0 -0.35346 -0.169993 0 -0.295319 -0.129881 0 -0.389452 -0.214078 0
          -0.540785 -0.202466 0 -0.201736 -0.161055 0 -0.283648 -0.21421 0 -0.125462 -0.124732 0
          -0.27659 -0.185872 0 -0.216354 -0.185104 0 -0.285401 -0.239146 0 -0.0150794 -0.0622045 0
          -0.0953248 -0.10215 0 0.109802 -0.00115345 0 -0.342363 -0.232972 0 -0.392627 -0.236455 0
          -0.377554 -0.266522 0 -0.399957 -0.262185 0 -0.336851 -0.261067 0 -0.0729267 -0.0888007 0
          -0.145593 -0.142742 0 -0.15677 -0.154724 0 0.0244474 -0.0231653 0 -0.223575 -0.204234 0
          -0.0868969 -0.0919304 0 -0.0015982 -0.0244773 0 -0.0176229 -0.0176229 0 -0.049285 -0.0784758 0
          0.0613062 -0.0149111 0 0.0905864 -0.0177795 0 0.00335652 -0.0500426 0 -0.0533563 -0.0767373 0
          0.245266 0.0370676 0 -0.143796 -0.105162 0 0.0309486 -0.0414773 0 0.17083 0.0165922 0
          0.16614 0.00794092 0 0.33362 0.0598263 0 -0.345915 -0.20307 0 -0.262681 -0.156469 0
          -0.178448 -0.133758 0 0.626584 0.245086 0 0.364401 0.122526 0 0.633122 0.197379 0
          0.624108 0.319667 0 0.41333 0.113503 0 0.146713 0.010661 0 0.779901 0.268929 0
          0.802709 0.334064 0 0.828745 0.306763 0 0.340128 0.163401 0 0.317645 0.236507 0
          0.00024212 -0.0204524 0 -0.00908731 -0.0158304 0 0 0 0 0.0751534 -0.000331123 0
          0.505263 0.113933 0 0.459283 0.105621 0 0.304885 0.0470469 0 0.661243 0.163027 0
          0.229386 0.0337651 0 0.373645 0.0695006 0 0.547033 0.118593 0 0.646911 0.177787 0
          0.763116 0.225077 0 0.875401 0.510278 0 0.936864 0.682856 0 0.923736 0.509303 0
          0.710502 0.463878 0 0.95951 0.692143 0 1 1 0 0.871317 0.387417 0
          0.825793 0.39883 0 0.71544 0.565984 0 0.467475 0.413986 0 0.707107 0.707107 0
          0.382683 0.382683 0 0 0 0 0.92388 0.92388 0 0.657151 0.461685 0
          0.870732 0.627334 0 0.707107 0.707107 0 0.92388 0.92388 0 0.382683 0.382683 0
          0.832131 0.442149 0 -0.763101 -0.411235 0 -0.874855 -0.616505 0 -0.831749 -0.438431 0
          -0.592733 -0.328465 0 -0.914849 -0.647349 0 -1 -1 0 -0.732304 -0.314649 0
          -0.658484 -0.292382 0 -0.65506 -0.471979 0 -0.40096 -0.275201 0 -0.707107 -0.707107 0
          -0.382683 -0.382683 0 -0.92388 -0.92388 0 -0.647957 -0.443952 0 -0.839814 -0.59399 0
          -0.707107 -0.707107 0 -0.92388 -0.92388 0 -0.382683 -0.382683 0 -0.772588 -0.399336 0
          -0.239331 -0.111715 0 -0.0162095 -0.0472242 0 -0.361253 -0.160964 0 -0.118682 -0.077858 0
          -0.536269 -0.214567 0 0.0855151 -0.0144975 0 -0.312827 -0.183456 0 -0.230132 -0.128843 0
          -0.473591 -0.223907 0 0.518766 0.220662 0 0.350962 0.122531 0 0.447999 0.166334 0
          0.57217 0.294275 0 0.346583 0.126891 0 0.195215 0.0467794 0 0.489989 0.187025 0
          0.606967 0.268467 0 0.458589 0.171246 0 0.352349 0.15453 0 0.335147 0.21902 0
          0.0724313 -0.0346669 0 0.0327221 -0.0333303 0 0 0 0 0.147065 0.00978115 0
          0.266008 0.123638 0 0.315398 0.122882 0 0.219319 0.123449 0 0.272178 0.095584 0
          0.223482 0.0948841 0 0.191515 0.143944 0 0.195299 0.104646 0 0.138919 0.138919 0
          0.367855 0.135436 0 0.364787 0.116933 0 0.678398 0.396384 0 0.836221 0.617756 0
          0.756942 0.429549 0 0.507883 0.31119 0 0.882337 0.650715 0 1 1 0
          0.608635 0.280593 0 0.523855 0.248962 0 0.614448 0.471399 0 0.365799 0.277009 0
          0.707107 0.707107 0 0.382683 0.382683 0 0.92388 0.92388 0 0.639757 0.446846 0
          0.820365 0.597205 0 0.707107 0.707107 0 0.92388 0.92388 0 0.382683 0.382683 0
          0.71793 0.396185 0 -0.635578 -0.538749 0 -0.805436 -0.701915 0 -0.729715 -0.636869 0
          -0.454579 -0.399922 0 -0.872945 -0.76795 0 -1 -1 0 -0.587488 -0.543632 0
          -0.468012 -0.417721 0 -0.437851 -0.437851 0 -0.587305 -0.527386 0 -0.334601 -0.31099 0
          -0.707107 -0.707107 0 -0.382683 -0.382683 0 -0.92388 -0.92388 0 -0.703627 -0.648455 0
          -0.826023 -0.746011 0 -0.707107 -0.707107 0 -0.683249 -0.683249 0 -0.92388 -0.92388 0
          -0.382683 -0.382683 0 -0.463663 -0.463663 0 0 0 0 -0.74912 -0.689539 0
          -0.645991 -0.645991 0 -0.0349623 -0.0548637 0 0.0997528 0.0303658 0 -0.152358 -0.16721 0
          0.0492427 0.0492427 0 0.0234582 -0.0455151 0 -0.310684 -0.297775 0 -0.170967 -0.170967 0
          0.145735 0.10417 0 0.156569 0.156569 0 -0.201385 -0.214829 0 -0.0859809 -0.136686 0
          -0.293678 -0.275622 0 -0.312714 -0.280746 0 -0.259647 -0.233973 0 -0.25573 -0.246666 0
          -0.358216 -0.293581 0 -0.180792 -0.189794 0 -0.0866498 -0.127244 0 -0.303878 -0.29431 0
          -0.343943 -0.314255 0 -0.330386 -0.330386 0 -0.325642 -0.261696 0 -0.377511 -0.268158 0
          -0.271332 -0.214259 0 -0.34889 -0.238056 0 -0.177607 -0.178891 0 -0.0307084 -0.0532635 0
          -0.104546 -0.129173 0 0.066393 0.00407569 0 -0.120485 -0.120485 0 -0.000284851 -0.0639194 0
          0.11604 0.0767591 0 0.0283332 0.0283332 0 -0.187709 -0.192065 0 -0.252963 -0.252963 0
          -0.318955 -0.304503 0 -0.282105 -0.259127 0 -0.351154 -0.31735 0 -0.273458 -0.273458 0
          -0.329365 -0.285229 0 -0.349684 -0.333679 0 -0.336067 -0.336067 0 -0.223856 -0.217339 0
          -0.159633 -0.159633 0 -0.37973 -0.289896 0 -0.364306 -0.294085 0 -0.364069 -0.314018 0
          0.0480868 -0.0178228 0 -0.123406 -0.0705843 0 0.196 0.0746583 0 -0.0817497 -0.0911197 0
          -0.00741938 -0.00361978 0 0.356024 0.131758 0 0.198029 0.0394375 0 -0.222026 -0.139618 0
          -0.299358 -0.190317 0 0.241722 0.166246 0 0.126319 0.0844243 0 0.347034 0.175057 0
          0.23946 0.0592837 0 0.113768 -0.0029891 0 0.162524 0.00941893 0 0.0314624 -0.0602705 0
          0.308034 0.0859868 0 0.171834 0.0568156 0 -0.187329 -0.160255 0 -0.0749464 -0.113543 0
          0.0534526 -0.0427012 0 0.539681 0.433362 0 0.571275 0.443801 0 0.521618 0.455977 0
          0.559869 0.408312 0 0.553849 0.467549 0 0.566542 0.475217 0 0.46696 0.437061 0
          0.484872 0.41812 0 0.39107 0.41504 0 0.587733 0.414784 0 0.604564 0.383126 0
          0.591536 0.414489 0 0.600541 0.378707 0 0.607692 0.340305 0 0.579476 0.447297 0
          0.520924 0.496866 0 0.53739 0.486377 0 0.538062 0.51042 0 0.488551 0.481924 0
          0.552354 0.496541 0 0.523139 0.514388 0 0.505752 0.500165 0 0.508596 0.508596 0
          0.503957 0.471273 0 0.45232 0.453904 0 0.306769 0.336641 0 0.320815 0.312433 0
          0.420298 0.370975 0 0.166964 0.297989 0 0.43819 0.342746 0 0.460681 0.316974 0
          0.403519 0.392798 0 0.298097 0.363643 0 0.170462 0.266923 0 -0.00714435 0.217042 0
          0.180285 0.240686 0 -0.00955149 0.182879 0 -0.225533 0.121326 0 0.336526 0.282076 0
          0.579355 0.378809 0 0.525516 0.366822 0 0.600585 0.348919 0 0.547156 0.337173 0
          0.618485 0.349478 0 0.503518 0.392452 0 0.480537 0.372231 0 0.460312 0.316785 0
          0.415299 0.34332 0 0.534184 0.392664 0 0.384199 0.281879 0 0.345562 0.2183 0
          0.439652 0.403383 0 0.494577 0.422969 0 0.457045 0.457045 0 0.524503 0.345834 0
          0.573238 0.365547 0 0.509517 0.295639 0 0.568784 0.323124 0 0.432715 0.26194 0
          0.215292 0.187843 0 0.301057 0.237808 0 0.157762 0.11169 0 0.265176 0.265176 0
          0.252124 0.169152 0 0.0668261 0.0496242 0 0.129996 0.129996 0 0.342587 0.30852 0
          0.376094 0.376094 0 0.535562 0.507483 0 0.551236 0.503722 0 0.538672 0.475782 0
          0.52944 0.52944 0 0.560572 0.477949 0 0.503477 0.469408 0 0.507277 0.507277 0
          0.540221 0.520957 0 0.528104 0.528104 0 0.572118 0.407467 0 0.567915 0.444961 0
          0.538503 0.4374 0 0.303253 0.389444 0 0.299673 0.407368 0 0.356777 0.408571 0
          0.244909 0.37075 0 0.358731 0.426149 0 0.362755 0.439581 0 0.352135 0.380241 0
          0.308106 0.369219 0 0.348526 0.348526 0 0.229452 0.379701 0 0.153373 0.35201 0
          0.215641 0.387807 0 0.124585 0.349597 0 0.0260206 0.31073 0 0.294155 0.413675 0
          0.447517 0.460354 0 0.409362 0.445573 0 0.460839 0.477244 0 0.43593 0.43593 0
          0.417459 0.458198 0 0.490328 0.492644 0 0.476236 0.476236 0 0.399897 0.421669 0
          0.392053 0.392053 0 0.273311 0.302041 0 0.24192 0.294039 0 0.268189 0.330148 0
          0.276967 0.276967 0 0.22429 0.311331 0 0.186016 0.291481 0 0.308551 0.339327 0
          0.309 0.309 0 0.250515 0.271439 0 0.255797 0.255797 0 0.23399 0.263588 0
          0.243474 0.250977 0 0.24759 0.24759 0 0.212266 0.274713 0 0.178982 0.341108 0
          0.204755 0.331634 0 0.112283 0.310898 0 0.150143 0.299472 0 0.0687236 0.309466 0
          0.256565 0.350478 0 0.177344 0.362121 0 0.0483286 0.321377 0 0.170707 0.346693 0
          0.188601 0.378767 0 0.027183 0.296628 0 -0.135041 0.244737 0 0.291257 0.382096 0
          0.289135 0.401339 0 0.071146 0.333894 0 0.0980847 0.348508 0 -0.0599205 0.287907 0
          -0.0186276 0.297885 0 -0.100121 0.264527 0 -0.00102741 0.243747 0 0.0115567 0.275218 0
          -0.191806 0.186788 0 -0.166721 0.21346 0 -0.212361 0.15119 0 0.166016 0.320841 0
          0.438652 0.461663 0 0.427918 0.4653 0 0.372697 0.44036 0 0.366211 0.44165 0
          0.379981 0.428528 0 0.473637 0.482852 0 0.20049 0.383394 0 0.291226 0.417723 0
          0.288292 0.41005 0 0.503348 0.152334 0 0.542083 0.149657 0 0.626768 0.184188 0
          0.325651 0.105106 0 0.654867 0.177381 0 0.687667 0.179534 0 0.594678 0.196007 0
          0.470788 0.165384 0 0.567091 0.214922 0 0.361665 0.0991408 0 0.131535 0.0345227 0
          0.404736 0.106938 0 0.169897 0.0377714 0 -0.101162 -0.0420861 0 0.578717 0.153118 0
          0.683547 0.176338 0 0.704246 0.185687 0 0.681757 0.164819 0 0.684632 0.189559 0
          0.7183 0.183104 0 0.57998 0.134207 0 0.608887 0.147732 0 0.683904 0.195976 0
          0.665796 0.211179 0 0.23267 0.15498 0 0.0192828 0.097327 0 0.260634 0.134864 0
          0.211676 0.183359 0 0.038534 0.0707899 0 -0.215682 0.000398992 0 0.436711 0.180832 0
          0.40869 0.204392 0 0.00351146 0.122315 0 -0.00492231 0.154917 0 -0.23381 0.0563525 0
          -0.233572 0.085397 0 -0.22876 0.0243279 0 0.0947358 0.0382617 0 0.0652351 0.0534372 0
          -0.171031 -0.0367128 0 -0.197419 -0.0229509 0 -0.139956 -0.0453194 0 0.289607 0.114801 0
          0.544208 0.204872 0 0.307025 0.139569 0 0.599691 0.27819 0 0.496158 0.158164 0
          0.350049 0.20419 0 0.069028 0.113196 0 0.764478 0.308487 0 0.71403 0.246286 0
          0.258724 0.0871981 0 0.214745 0.0563321 0 -0.0129092 0.00198732 0 -0.0596798 -0.0278304 0
          0.0296229 0.0472376 0 0.426158 0.365423 0 0.394728 0.293385 0 0.0797959 0.264008 0
          0.0853076 0.1805 0 0.0198274 0.239552 0 0.650774 0.359226 0 0.747137 0.201425 0
          0.734812 0.186281 0 0.752068 0.213652 0 0.717038 0.190534 0 0.786471 0.250836 0
          0.671811 0.163263 0 0.446949 0.122778 0 0.621947 0.170634 0 0.664017 0.198543 0
          0.41756 0.154164 0 0.520458 0.19453 0 0.370758 0.110255 0 0.457274 0.198188 0
          0.486879 0.157921 0 0.583648 0.192887 0 0.240369 0.0585907 0 0.302573 0.102641 0
          0.542959 0.236929 0 0.560081 0.278504 0 0.607739 0.263596 0 0.609192 0.302463 0
          0.597739 0.228418 0 0.393943 0.0910869 0 0.446882 0.120802 0 0.527943 0.133344 0
          0.5584 0.163519 0 0.484739 0.110966 0 0.311831 0.0735461 0 0.131539 0.0410691 0
          0.195646 0.101882 0 0.243958 0.0993439 0 0.298508 0.158216 0 0.18026 0.0472872 0
          0.0938997 0.0414071 0 0.486553 0.247487 0 0.398117 0.205566 0 0.35404 0.153728 0
          0.594735 0.280499 0 0.571996 0.309435 0 0.510607 0.26206 0 0.638979 0.287414 0
          0.483317 0.287406 0 0.536561 0.235646 0 0.620351 0.254885 0 0.6192 0.317586 0
          0.631971 0.315035 0 0.192611 0.208743 0 0.358004 0.25641 0 0.380364 0.227201 0
          0.676934 0.209739 0 0.641023 0.191664 0 0.669009 0.2321 0 0.644993 0.219992 0
          0.641828 0.230902 0 0.626614 0.169838 0 0.639969 0.281784 0 0.64659 0.248857 0
          0.653761 0.25874 0 0.25874 0.653761 0 0.248857 0.64659 0 0.2321 0.669009 0
          0.287414 0.638979 0 0.219992 0.644993 0 0.192887 0.583648 0 0.230902 0.641828 0
          0.254885 0.620351 0 0.214922 0.567091 0 0.281784 0.639969 0 0.315035 0.631971 0
          0.263596 0.607739 0 0.302463 0.609192 0 0.340305 0.607692 0 0.228418 0.597739 0
          0.169838 0.626614 0 0.191664 0.641023 0 0.133344 0.527943 0 0.189559 0.684632 0
          0.163519 0.5584 0 0.110966 0.484739 0 0.147732 0.608887 0 0.0859394 0.435266 0
          0.209739 0.676934 0 0.211179 0.665796 0 0.227201 0.380364 0 0.25641 0.358004 0
          0.26206 0.510607 0 0.183359 0.211676 0 0.287406 0.483317 0 0.316974 0.460681 0
          0.235646 0.536561 0 0.204392 0.40869 0 0.208743 0.192611 0 0.154917 -0.00492231 0
          0.240686 0.180285 0 0.182879 -0.00955149 0 0.121326 -0.225533 0 0.282076 0.336526 0
          0.317586 0.6192 0 0.309435 0.571996 0 0.348919 0.600585 0 0.337173 0.547156 0
          0.349478 0.618485 0 0.280499 0.594735 0 0.153728 0.35404 0 0.205566 0.398117 0
          0.0993439 0.243958 0 0.198188 0.457274 0 0.158216 0.298508 0 0.2183 0.345562 0
          0.0472872 0.18026 0 0.102641 0.302573 0 -0.00115345 0.109802 0 0.247487 0.486553 0
          0.278504 0.560081 0 0.295639 0.509517 0 0.323124 0.568784 0 0.26194 0.432715 0
          0.0414071 0.0938997 0 0.101882 0.195646 0 0.11169 0.157762 0 -0.0231653 0.0244474 0
          0.169152 0.252124 0 0.0496242 0.0668261 0 -0.0244773 -0.0015982 0 0.0410691 0.131539 0
          -0.0149111 0.0613062 0 0.0735461 0.311831 0 0.120802 0.446882 0 0.110255 0.370758 0
          0.0370676 0.245266 0 0.157921 0.486879 0 0.0585907 0.240369 0 0.0165922 0.17083 0
          0.0910869 0.393943 0 0.0598263 0.33362 0 0.236929 0.542959 0 0.19453 0.520458 0
          0.154164 0.41756 0 0.198543 0.664017 0 0.170634 0.621947 0 0.213652 0.752068 0
          0.158164 0.496158 0 0.190534 0.717038 0 0.179534 0.687667 0 0.250836 0.786471 0
          0.246286 0.71403 0 0.306763 0.828745 0 0.122778 0.446949 0 0.0563321 0.214745 0
          0.106938 0.404736 0 0.0377714 0.169897 0 -0.0420861 -0.101162 0 0.153118 0.578717 0
          0.163263 0.671811 0 0.186281 0.734812 0 0.164819 0.681757 0 0.163027 0.661243 0
          0.183104 0.7183 0 0.134207 0.57998 0 0.118593 0.547033 0 0.201425 0.747137 0
          0.225077 0.763116 0 0.359226 0.650774 0 0.293385 0.394728 0 0.27819 0.599691 0
          0.463878 0.710502 0 0.20419 0.350049 0 0.113196 0.069028 0 0.308487 0.764478 0
          0.39883 0.825793 0 0.365423 0.426158 0 0.413986 0.467475 0 0.264008 0.0797959 0
          0.239552 0.0198274 0 0 0 0 0.1805 0.0853076 0 0.0871981 0.258724 0
          0.139569 0.307025 0 0.00198732 -0.0129092 0 0.0472376 0.0296229 0 -0.0278304 -0.0596798 0
          0.204872 0.544208 0 0.114801 0.289607 0 0.0534372 0.0652351 0 0.134864 0.260634 0
          0.105106 0.325651 0 0.0707899 0.038534 0 0.000398992 -0.215682 0 0.180832 0.436711 0
          0.165384 0.470788 0 0.0382617 0.0947358 0 0.0345227 0.131535 0 -0.0367128 -0.171031 0
          -0.0453194 -0.139956 0 -0.0229509 -0.197419 0 0.122315 0.00351146 0 0.097327 0.0192828 0
          0.0563525 -0.23381 0 0.0243279 -0.22876 0 0.085397 -0.233572 0 0.15498 0.23267 0
          0.195976 0.683904 0 0.185687 0.704246 0 0.184188 0.626768 0 0.177381 0.654867 0
          0.196007 0.594678 0 0.176338 0.683547 0 0.0991408 0.361665 0 0.149657 0.542083 0
          0.152334 0.503348 0 0.41005 0.288292 0 0.417723 0.291226 0 0.44036 0.372697 0
          0.378767 0.188601 0 0.44165 0.366211 0 0.439581 0.362755 0 0.428528 0.379981 0
          0.401339 0.289135 0 0.41504 0.39107 0 0.383394 0.20049 0 0.348508 0.0980847 0
          0.387807 0.215641 0 0.349597 0.124585 0 0.31073 0.0260206 0 0.413675 0.294155 0
          0.482852 0.473637 0 0.4653 0.427918 0 0.477244 0.460839 0 0.481924 0.488551 0
          0.458198 0.417459 0 0.492644 0.490328 0 0.500165 0.505752 0 0.461663 0.438652 0
          0.453904 0.45232 0 0.320841 0.166016 0 0.275218 0.0115567 0 0.346693 0.170707 0
          0.297989 0.166964 0 0.296628 0.027183 0 0.244737 -0.135041 0 0.382096 0.291257 0
          0.363643 0.298097 0 0.243747 -0.00102741 0 0.217042 -0.00714435 0 0.186788 -0.191806 0
          0.15119 -0.212361 0 0.21346 -0.166721 0 0.333894 0.071146 0 0.321377 0.0483286 0
          0.287907 -0.0599205 0 0.264527 -0.100121 0 0.297885 -0.0186276 0 0.362121 0.177344 0
          0.350478 0.256565 0 0.331634 0.204755 0 0.330148 0.268189 0 0.37075 0.244909 0
          0.311331 0.22429 0 0.291481 0.186016 0 0.339327 0.308551 0 0.369219 0.308106 0
          0.341108 0.178982 0 0.35201 0.153373 0 0.310898 0.112283 0 0.309466 0.0687236 0
          0.299472 0.150143 0 0.271439 0.250515 0 0.294039 0.24192 0 0.263588 0.23399 0
          0.274713 0.212266 0 0.250977 0.243474 0 0.302041 0.273311 0 0.421669 0.399897 0
          0.445573 0.409362 0 0.408571 0.356777 0 0.426149 0.358731 0 0.380241 0.352135 0
          0.460354 0.447517 0 0.379701 0.229452 0 0.407368 0.299673 0 0.389444 0.303253 0
          0.4374 0.538503 0 0.444961 0.567915 0 0.475782 0.538672 0 0.392664 0.534184 0
          0.477949 0.560572 0 0.475217 0.566542 0 0.469408 0.503477 0 0.422969 0.494577 0
          0.407467 0.572118 0 0.365547 0.573238 0 0.414489 0.591536 0 0.378707 0.600541 0
          0.447297 0.579476 0 0.520957 0.540221 0 0.503722 0.551236 0 0.51042 0.538062 0
          0.496541 0.552354 0 0.514388 0.523139 0 0.507483 0.535562 0 0.30852 0.342587 0
          0.237808 0.301057 0 0.34332 0.415299 0 0.281879 0.384199 0 0.403383 0.439652 0
          0.187843 0.215292 0 0.345834 0.524503 0 0.316785 0.460312 0 0.372231 0.480537 0
          0.392452 0.503518 0 0.366822 0.525516 0 0.370975 0.420298 0 0.408312 0.559869 0
          0.342746 0.43819 0 0.392798 0.403519 0 0.41812 0.484872 0 0.378809 0.579355 0
          0.383126 0.604564 0 0.266923 0.170462 0 0.312433 0.320815 0 0.336641 0.306769 0
          0.471273 0.503957 0 0.486377 0.53739 0 0.455977 0.521618 0 0.467549 0.553849 0
          0.437061 0.46696 0 0.496866 0.520924 0 0.414784 0.587733 0 0.443801 0.571275 0
          0.433362 0.539681 0 -0.0427012 0.0534526 0 -0.113543 -0.0749464 0 0.00941893 0.162524 0
          -0.0911197 -0.0817497 0 -0.0602705 0.0314624 0 -0.127244 -0.0866498 0 0.0859868 0.308034 0
          0.0394375 0.198029 0 0.171246 0.458589 0 -0.160255 -0.187329 0 -0.190317 -0.299358 0
          -0.214259 -0.271332 0 -0.238056 -0.34889 0 -0.240223 -0.406652 0 -0.178891 -0.177607 0
          0.0568156 0.171834 0 -0.0029891 0.113768 0 0.00407569 0.066393 0 0.095584 0.272178 0
          -0.0639194 -0.000284851 0 0.0767591 0.11604 0 0.104646 0.195299 0 0.0592837 0.23946 0
          0.116933 0.364787 0 0.175057 0.347034 0 0.0844243 0.126319 0 0.0746583 0.196 0
          0.31119 0.507883 0 -0.00361978 -0.00741938 0 -0.0737623 -0.21861 0 0.131758 0.356024 0
          0.248962 0.523855 0 0.166246 0.241722 0 0.277009 0.365799 0 0.0125395 -0.0478096 0
          0.0184794 -0.0158217 0 0 0 0 -0.0342849 -0.138987 0 -0.139618 -0.222026 0
          -0.0705843 -0.123406 0 -0.169993 -0.35346 0 -0.129881 -0.295319 0 -0.214078 -0.389452 0
          -0.0178228 0.0480868 0 -0.314018 -0.364069 0 -0.294085 -0.364306 0 -0.31735 -0.351154 0
          -0.293581 -0.358216 0 -0.285229 -0.329365 0 -0.239146 -0.285401 0 -0.333679 -0.349684 0
          -0.314255 -0.343943 0 -0.289896 -0.37973 0 -0.268158 -0.377511 0 -0.266522 -0.377554 0
          -0.262185 -0.399957 0 -0.261067 -0.336851 0 -0.217339 -0.223856 0 -0.259127 -0.282105 0
          -0.154724 -0.15677 0 -0.204234 -0.223575 0 -0.0919304 -0.0868969 0 -0.304503 -0.318955 0
          -0.192065 -0.187709 0 -0.129173 -0.104546 0 -0.246666 -0.25573 0 -0.189794 -0.180792 0
          -0.29431 -0.303878 0 -0.0532635 -0.0307084 0 -0.261696 -0.325642 0 -0.233973 -0.259647 0
          -0.280746 -0.312714 0 -0.275622 -0.293678 0 -0.136686 -0.0859809 0 -0.16721 -0.152358 0
          -0.399922 -0.454579 0 -0.0455151 0.0234582 0 0.0467794 0.195215 0 -0.297775 -0.310684 0
          -0.417721 -0.468012 0 -0.214829 -0.201385 0 -0.31099 -0.334601 0 -0.0346669 0.0724313 0
          -0.0333303 0.0327221 0 0 0 0 0.00978115 0.147065 0 0.10417 0.145735 0
          0.0303658 0.0997528 0 0.123449 0.219319 0 0.0948841 0.223482 0 0.143944 0.191515 0
          -0.0548637 -0.0349623 0 -0.689539 -0.74912 0 -0.746011 -0.826023 0 -0.636869 -0.729715 0
          -0.76795 -0.872945 0 -1 -1 0 -0.543632 -0.587488 0 -0.648455 -0.703627 0
          -0.707107 -0.707107 0 -0.382683 -0.382683 0 -0.92388 -0.92388 0 -0.527386 -0.587305 0
          -0.701915 -0.805436 0 -0.707107 -0.707107 0 -0.92388 -0.92388 0 -0.382683 -0.382683 0
          -0.538749 -0.635578 0 0.396185 0.71793 0 0.597205 0.820365 0 0.429549 0.756942 0
          0.294275 0.57217 0 0.650715 0.882337 0 1 1 0 0.280593 0.608635 0
          0.268467 0.606967 0 0.446846 0.639757 0 0.21902 0.335147 0 0.707107 0.707107 0
          0.382683 0.382683 0 0.92388 0.92388 0 0.471399 0.614448 0 0.617756 0.836221 0
          0.707107 0.707107 0 0.92388 0.92388 0 0.382683 0.382683 0 0.396384 0.678398 0
          0.135436 0.367855 0 0.122882 0.315398 0 0.166334 0.447999 0 0.126891 0.346583 0
          0.187025 0.489989 0 0.123638 0.266008 0 0.15453 0.352349 0 0.122531 0.350962 0
          0.220662 0.518766 0 -0.223907 -0.473591 0 -0.128843 -0.230132 0 -0.160964 -0.361253 0
          -0.328465 -0.592733 0 -0.077858 -0.118682 0 0.010661 0.146713 0 -0.214567 -0.536269 0
          -0.292382 -0.658484 0 -0.240511 -0.636139 0 -0.183456 -0.312827 0 -0.275201 -0.40096 0
          -0.0204524 0.00024212 0 -0.0158304 -0.00908731 0 0 0 0 -0.000331123 0.0751534 0
          -0.0144975 0.0855151 0 -0.0472242 -0.0162095 0 0.0470469 0.304885 0 -0.0792763 -0.126423 0
          0.0337651 0.229386 0 0.0695006 0.373645 0 0.00788245 0.178079 0 -0.111715 -0.239331 0
          -0.165844 -0.421138 0 -0.399336 -0.772588 0 -0.59399 -0.839814 0 -0.438431 -0.831749 0
          -0.296155 -0.600975 0 -0.647349 -0.914849 0 -1 -1 0 -0.314649 -0.732304 0
          -0.29076 -0.707451 0 -0.443952 -0.647957 0 -0.224116 -0.325559 0 -0.707107 -0.707107 0
          -0.382683 -0.382683 0 -0.92388 -0.92388 0 -0.471979 -0.65506 0 -0.616505 -0.874855 0
          -0.707107 -0.707107 0 -0.92388 -0.92388 0 -0.382683 -0.382683 0 -0.411235 -0.763101 0
          0.442149 0.832131 0 0.627334 0.870732 0 0.509303 0.923736 0 0.319667 0.624108 0
          0.692143 0.95951 0 1 1 0 0.387417 0.871317 0 0.334064 0.802709 0
          0.461685 0.657151 0 0.236507 0.317645 0 0.707107 0.707107 0 0.382683 0.382683 0
          0.92388 0.92388 0 0.565984 0.71544 0 0.682856 0.936864 0 0.707107 0.707107 0
          0.92388 0.92388 0 0.382683 0.382683 0 0.510278 0.875401 0 0.177787 0.646911 0
          0.105621 0.459283 0 0.197379 0.633122 0 0.113503 0.41333 0 0.268929 0.779901 0
          0.113933 0.505263 0 0.163401 0.340128 0 0.122526 0.364401 0 0.245086 0.626584 0
          -0.133758 -0.178448 0 -0.156469 -0.262681 0 -0.0767373 -0.0533563 0 -0.185872 -0.27659 0
          -0.105162 -0.143796 0 -0.12855 -0.238167 0 -0.0414773 0.0309486 0 -0.10215 -0.0953248 0
          -0.20307 -0.345915 0 -0.236455 -0.392627 0 -0.207365 -0.409895 0 -0.23386 -0.427533 0
          -0.17443 -0.345446 0 0.00794092 0.16614 0 -0.0500426 0.00335652 0 -0.0225059 0.0789112 0
          -0.0767099 -0.0930933 0 0.0361082 0.260016 0 -0.0177795 0.0905864 0 -0.0784758 -0.049285 0
          -0.142742 -0.145593 0 -0.124732 -0.125462 0 -0.185104 -0.216354 0 -0.0622045 -0.0150794 0
          -0.0888007 -0.0729267 0 -0.232972 -0.342363 0 -0.21421 -0.283648 0 -0.161055 -0.201736 0
          -0.202466 -0.540785 0 -0.167341 -0.44142 0 -0.201337 -0.56441 0 -0.201104 -0.507979 0
          -0.152341 -0.41668 0 -0.239534 -0.64277 0 -0.207753 -0.575683 0 -0.198168 -0.453073 0
          -0.215099 -0.449759 0 -0.160914 -0.354736 0 -0.135274 -0.378448 0 -0.23439 -0.585198 0
          -0.130785 -0.305321 0 -0.103515 -0.196202 0 -0.17011 -0.435364 0 -0.150066 -0.335389 0
          -0.199506 -0.534496 0 -0.0479345 -0.0194316 0 -0.210058 -0.463134 0 -0.183907 -0.426716 0
          -0.197079 -0.502733 0
        </DataArray>
      </PointData>
      <Points>
        <DataArray type="Float32" Name="Coordinates" NumberOfComponents="3" format="ascii">
          0.8125 0.40625 0 0.78125 0.40625 0 0.8125 0.375 0 0.8125 0.4375 0
          0.78125 0.375 0 0.75 0.375 0 0.84375 0.375 0 0.84375 0.40625 0
          0.875 0.375 0 0.78125 0.4375 0 0.78125 0.46875 0 0.75 0.4375 0
          0.75 0.46875 0 0.75 0.5 0 0.75 0.40625 0 0.78125 0.3125 0
          0.78125 0.34375 0 0.75 0.3125 0 0.8125 0.3125 0 0.75 0.34375 0
          0.75 0.28125 0 0.78125 0.28125 0 0.75 0.25 0 0.8125 0.34375 0
          0.84375 0.34375 0 0.90625 0.4375 0 0.90625 0.46875 0 0.875 0.4375 0
          0.9375 0.4375 0 0.875 0.46875 0 0.875 0.5 0 0.875 0.40625 0
          0.90625 0.40625 0 0.9375 0.46875 0 0.96875 0.46875 0 0.9375 0.5 0
          0.96875 0.5 0 1 0.5 0 0.90625 0.5 0 0.8125 0.46875 0
          0.84375 0.46875 0 0.8125 0.5 0 0.84375 0.5 0 0.78125 0.5 0
          0.84375 0.4375 0 0.65625 0.4375 0 0.65625 0.46875 0 0.625 0.4375 0
          0.6875 0.4375 0 0.625 0.46875 0 0.625 0.5 0 0.625 0.40625 0
          0.65625 0.40625 0 0.625 0.375 0 0.6875 0.46875 0 0.71875 0.46875 0
          0.6875 0.5 0 0.71875 0.5 0 0.65625 0.5 0 0.5625 0.46875 0
          0.59375 0.46875 0 0.5625 0.5 0 0.5625 0.4375 0 0.59375 0.5 0
          0.53125 0.5 0 0.53125 0.46875 0 0.5 0.5 0 0.59375 0.4375 0
          0.59375 0.40625 0 0.6875 0.34375 0 0.71875 0.34375 0 0.6875 0.375 0
          0.6875 0.3125 0 0.71875 0.375 0 0.65625 0.375 0 0.65625 0.34375 0
          0.71875 0.3125 0 0.71875 0.28125 0 0.71875 0.4375 0 0.71875 0.40625 0
          0.6875 0.40625 0 0.90625 0.1875 0 0.90625 0.21875 0 0.875 0.1875 0
          0.9375 0.1875 0 0.875 0.21875 0 0.875 0.25 0 0.875 0.15625 0
          0.90625 0.15625 0 0.875 0.125 0 0.9375 0.21875 0 0.96875 0.21875 0
          0.9375 0.25 0 0.96875 0.25 0 1 0.25 0 0.90625 0.25 0
          0.8125 0.21875 0 0.84375 0.21875 0 0.8125 0.25 0 0.8125 0.1875 0
          0.84375 0.25 0 0.78125 0.25 0 0.78125 0.21875 0 0.84375 0.1875 0
          0.84375 0.15625 0 0.9375 0.09375 0 0.96875 0.09375 0 0.9375 0.125 0
          0.9375 0.0625 0 0.96875 0.125 0 1 0.125 0 0.90625 0.125 0
          0.90625 0.09375 0 0.96875 0.0625 0 0.96875 0.03125 0 1 0.0625 0
          1 0.03125 0 1 0 0 1 0.09375 0 0.96875 0.1875 0
          0.96875 0.15625 0 1 0.1875 0 1 0.15625 0 1 0.21875 0
          0.9375 0.15625 0 0.9375 0.34375 0 0.96875 0.34375 0 0.9375 0.375 0
          0.9375 0.3125 0 0.96875 0.375 0 1 0.375 0 0.90625 0.375 0
          0.90625 0.34375 0 0.96875 0.3125 0 0.96875 0.28125 0 1 0.3125 0
          1 0.28125 0 1 0.34375 0 0.96875 0.4375 0 0.96875 0.40625 0
          1 0.4375 0 1 0.40625 0 1 0.46875 0 0.9375 0.40625 0
          0.84375 0.3125 0 0.84375 0.28125 0 0.875 0.3125 0 0.875 0.28125 0
          0.875 0.34375 0 0.8125 0.28125 0 0.9375 0.28125 0 0.90625 0.28125 0
          0.90625 0.3125 0 0.90625 0.6875 0 0.90625 0.71875 0 0.875 0.6875 0
          0.9375 0.6875 0 0.875 0.71875 0 0.875 0.75 0 0.875 0.65625 0
          0.90625 0.65625 0 0.875 0.625 0 0.9375 0.71875 0 0.96875 0.71875 0
          0.9375 0.75 0 0.96875 0.75 0 1 0.75 0 0.90625 0.75 0
          0.8125 0.71875 0 0.84375 0.71875 0 0.8125 0.75 0 0.8125 0.6875 0
          0.84375 0.75 0 0.78125 0.75 0 0.78125 0.71875 0 0.75 0.75 0
          0.84375 0.6875 0 0.84375 0.65625 0 0.9375 0.59375 0 0.96875 0.59375 0
          0.9375 0.625 0 0.9375 0.5625 0 0.96875 0.625 0 1 0.625 0
          0.90625 0.625 0 0.90625 0.59375 0 0.96875 0.5625 0 0.96875 0.53125 0
          1 0.5625 0 1 0.53125 0 1 0.59375 0 0.96875 0.6875 0
          0.96875 0.65625 0 1 0.6875 0 1 0.65625 0 1 0.71875 0
          0.9375 0.65625 0 0.9375 0.84375 0 0.96875 0.84375 0 0.9375 0.875 0
          0.9375 0.8125 0 0.96875 0.875 0 1 0.875 0 0.90625 0.875 0
          0.90625 0.84375 0 0.875 0.875 0 0.96875 0.8125 0 0.96875 0.78125 0
          1 0.8125 0 1 0.78125 0 1 0.84375 0 0.96875 0.9375 0
          0.96875 0.90625 0 1 0.9375 0 0.9375 0.9375 0 1 0.90625 0
          1 0.96875 0 0.96875 0.96875 0 1 1 0 0.9375 0.90625 0
          0.90625 0.90625 0 0.84375 0.8125 0 0.84375 0.78125 0 0.875 0.8125 0
          0.8125 0.8125 0 0.875 0.78125 0 0.875 0.84375 0 0.84375 0.84375 0
          0.8125 0.78125 0 0.78125 0.78125 0 0.9375 0.78125 0 0.90625 0.78125 0
          0.90625 0.8125 0 0.6875 0.59375 0 0.71875 0.59375 0 0.6875 0.625 0
          0.6875 0.5625 0 0.71875 0.625 0 0.75 0.625 0 0.65625 0.625 0
          0.65625 0.59375 0 0.625 0.625 0 0.71875 0.5625 0 0.71875 0.53125 0
          0.75 0.5625 0 0.75 0.53125 0 0.75 0.59375 0 0.71875 0.6875 0