<?xml version="1.0"?>
<VTKFile type="UnstructuredGrid" version="0.1" byte_order="LittleEndian">
  <UnstructuredGrid>
    <Piece NumberOfCells="2048" NumberOfPoints="1089">
      <PointData Vectors="Uh">
        <DataArray type="Float32" Name="Uh" NumberOfComponents="3" format="ascii">
          -0.204663 -1.09994 0 -0.258502 -1.10598 0 -0.270525 -1.0461 0 -0.142017 -1.15378 0
          -0.340684 -1.03582 0 -0.410842 -1.0297 0 -0.204598 -0.973413 0 -0.150825 -1.03934 0
          -0.138671 -0.901598 0 -0.178845 -1.14281 0 -0.088971 -1.17964 0 -0.215674 -1.13568 0
          -0.107211 -1.15392 0 -6.45254e-10 -1.17216 0 -0.311496 -1.08269 0 -0.4685 -0.869174 0
          -0.402787 -0.965662 0 -0.564989 -0.864564 0 -0.372012 -0.878331 0 -0.485353 -0.94713 0
          -0.608448 -0.76107 0 -0.504954 -0.772685 0 -0.657575 -0.657575 0 -0.318903 -0.962215 0
          -0.235019 -0.907486 0 -0.0466688 -0.810788 0 -0.0199696 -0.836922 0 -0.0728028 -0.994399 0
          -0.0205348 -0.621788 0 -0.0359397 -1.01037 0 1.20695e-09 -1.02634 0 -0.104424 -0.947999 0
          -0.0580238 -0.784654 0 -0.0099848 -0.631772 0 -5.79792e-10 -0.327688 0 9.99447e-10 -0.641757 0
          4.99724e-10 -0.327688 0 0 0 0 1.1032e-09 -0.836922 0 -0.0704404 -1.17231 0
          -0.0519098 -1.10855 0 0 -1.19084 0 6.23352e-10 -1.10855 0 -3.02749e-10 -1.17964 0
          -0.10741 -1.07395 0 -0.310629 -0.840031 0 -0.156795 -0.867108 0 -0.337706 -0.709526 0
          -0.283551 -0.975755 0 -0.168191 -0.720922 0 8.47176e-10 -0.732318 0 -0.488661 -0.676418 0
          -0.455553 -0.812954 0 -0.64331 -0.64331 0 -0.141123 -0.991427 0 -0.125452 -1.08696 0
          2.46924e-10 -1.0071 0 -1.99165e-10 -1.08696 0 5.4705e-10 -0.867108 0 -0.185569 -0.378448 0
          -0.179587 -0.556529 0 5.28592e-10 -0.38443 0 -0.372466 -0.372466 0 6.87884e-10 -0.556529 0
          4.891e-10 -0.191552 0 -0.191552 -0.191552 0 4.49608e-10 -2.01147e-09 0 -0.355086 -0.539149 0
          -0.521769 -0.521769 0 -0.638855 -0.813756 0 -0.567918 -0.889773 0 -0.540148 -0.884693 0
          -0.742819 -0.742819 0 -0.475495 -0.954426 0 -0.591729 -0.761373 0 -0.709792 -0.709792 0
          -0.653904 -0.800858 0 -0.711943 -0.711943 0 -0.249612 -1.05302 0 -0.36449 -1.01908 0
          -0.410021 -0.930224 0 -0.144349 -0.307809 0 -0.123074 -0.388772 0 -0.225312 -0.37897 0
          -0.063386 -0.236899 0 -0.221449 -0.477346 0 -0.221864 -0.575721 0 -0.20813 -0.28652 0
          -0.115679 -0.226846 0 -0.19407 -0.19407 0 -0.0615369 -0.298436 0 -4.2586e-09 -0.151829 0
          -0.0624834 -0.359973 0 -0.0312417 -0.183071 0 0 0 0 -0.142174 -0.468462 0
          -0.433942 -0.553909 0 -0.319825 -0.51506 0 -0.432949 -0.668027 0 -0.439792 -0.439792 0
          -0.327407 -0.620603 0 -0.545262 -0.660372 0 -0.548059 -0.548059 0 -0.332552 -0.40782 0
          -0.30058 -0.30058 0 -0.0436415 -0.077578 0 -4.87936e-09 -0.0339366 0 -0.0545065 -0.121219 0
          -0.0339366 -0.0339366 0 -0.0272532 -0.0611898 0 0 0 0 -0.124288 -0.157064 0
          -0.0872829 -0.0872829 0 -0.0169683 -0.0169683 0 -4.87339e-09 -4.87339e-09 0 0 0 0
          0 0 0 0 0 0 0 0 0 -0.031693 -0.120136 0
          -4.6866e-09 -0.0884431 0 0 0 0 0 0 0 0 0 0
          -0.0578397 -0.179059 0 -0.0452097 -0.518554 0 -2.73068e-09 -0.268051 0 -0.0391024 -0.563764 0
          -0.0537384 -0.473344 0 -0.0195512 -0.287602 0 0 0 0 -0.0888868 -0.734869 0
          -0.0904195 -0.685085 0 -0.0268692 -0.241182 0 -3.59728e-09 -0.214313 0 0 0 0
          0 0 0 0 0 0 -0.0102674 -0.317421 0 -1.70525e-09 -0.307153 0
          0 0 0 0 0 0 0 0 0 -0.0290119 -0.592776 0
          -0.281341 -0.816816 0 -0.294649 -0.726145 0 -0.190671 -0.756998 0 -0.204011 -0.66636 0
          -0.162719 -0.829298 0 -0.399801 -0.773179 0 -0.0566859 -0.416658 0 -0.113372 -0.548153 0
          -0.122205 -0.616619 0 0.122205 -0.616619 0 0.113372 -0.548153 0 0.190671 -0.756998 0
          0.0537384 -0.473344 0 0.204011 -0.66636 0 0.221864 -0.575721 0 0.162719 -0.829298 0
          0.0904195 -0.685085 0 0.138671 -0.901598 0 0.0566859 -0.416658 0 3.59728e-09 -0.214313 0
          0.0624834 -0.359973 0 0.0312417 -0.183071 0 0 0 0 0.142174 -0.468462 0
          0.399801 -0.773179 0 0.294649 -0.726145 0 0.432949 -0.668027 0 0.372012 -0.878331 0
          0.327407 -0.620603 0 0.545262 -0.660372 0 0.504954 -0.772685 0 0.657575 -0.657575 0
          0.281341 -0.816816 0 0.235019 -0.907486 0 0.0290119 -0.592776 0 1.70525e-09 -0.307153 0
          0.0391024 -0.563764 0 0.0205348 -0.621788 0 0.0195512 -0.287602 0 0 0 0
          0.0888868 -0.734869 0 0.0580238 -0.784654 0 0.0102674 -0.317421 0 5.79792e-10 -0.327688 0
          0 0 0 0 0 0 0 0 0 0.0268692 -0.241182 0
          2.73068e-09 -0.268051 0 0 0 0 0 0 0 0 0 0
          0.0452097 -0.518554 0 0.0578397 -0.179059 0 4.6866e-09 -0.0884431 0 0.0545065 -0.121219 0
          0.063386 -0.236899 0 0.0272532 -0.0611898 0 0 0 0 0.124288 -0.157064 0
          0.115679 -0.226846 0 0.19407 -0.19407 0 0.031693 -0.120136 0 4.2586e-09 -0.151829 0
          0 0 0 0 0 0 0 0 0 0.0169683 -0.0169683 0
          4.87936e-09 -0.0339366 0 0 0 0 0.0339366 -0.0339366 0 0 0 0
          0 0 0 4.87339e-09 -4.87339e-09 0 0 0 0 0.0436415 -0.077578 0
          0.0872829 -0.0872829 0 0.332552 -0.40782 0 0.319825 -0.51506 0 0.225312 -0.37897 0
          0.439792 -0.439792 0 0.221449 -0.477346 0 0.20813 -0.28652 0 0.30058 -0.30058 0
          0.433942 -0.553909 0 0.548059 -0.548059 0 0.0615369 -0.298436 0 0.123074 -0.388772 0
          0.144349 -0.307809 0 0.410021 -0.930224 0 0.36449 -1.01908 0 0.540148 -0.884693 0
          0.283551 -0.975755 0 0.475495 -0.954426 0 0.410842 -1.0297 0 0.591729 -0.761373 0
          0.455553 -0.812954 0 0.64331 -0.64331 0 0.249612 -1.05302 0 0.125452 -1.08696 0
          0.215674 -1.13568 0 0.107211 -1.15392 0 0.311496 -1.08269 0 0.653904 -0.800858 0
          0.567918 -0.889773 0 0.564989 -0.864564 0 0.742819 -0.742819 0 0.485353 -0.94713 0
          0.608448 -0.76107 0 0.711943 -0.711943 0 0.638855 -0.813756 0 0.709792 -0.709792 0
          0.355086 -0.539149 0 0.179587 -0.556529 0 0.337706 -0.709526 0 0.372466 -0.372466 0
          0.168191 -0.720922 0 0.488661 -0.676418 0 0.521769 -0.521769 0 0.185569 -0.378448 0
          0.191552 -0.191552 0 0.141123 -0.991427 0 0.156795 -0.867108 0 0.310629 -0.840031 0
          0.10741 -1.07395 0 0.0519098 -1.10855 0 0.0728028 -0.994399 0 0.142017 -1.15378 0
          0.0359397 -1.01037 0 0.104424 -0.947999 0 0.150825 -1.03934 0 0.0704404 -1.17231 0
          0.088971 -1.17964 0 0.0099848 -0.631772 0 0.0199696 -0.836922 0 0.0466688 -0.810788 0
          0.318903 -0.962215 0 0.402787 -0.965662 0 0.270525 -1.0461 0 0.340684 -1.03582 0
          0.204598 -0.973413 0 0.4685 -0.869174 0 0.178845 -1.14281 0 0.258502 -1.10598 0
          0.204663 -1.09994 0 -1.09994 0.204663 0 -1.10598 0.258502 0 -1.0461 0.270525 0
          -1.15378 0.142017 0 -1.03582 0.340684 0 -1.0297 0.410842 0 -0.973413 0.204598 0
          -1.03934 0.150825 0 -0.901598 0.138671 0 -1.14281 0.178845 0 -1.17964 0.088971 0
          -1.13568 0.215674 0 -1.15392 0.107211 0 -1.17216 -1.49818e-09 0 -1.08269 0.311496 0
          -0.869174 0.4685 0 -0.965662 0.402787 0 -0.864564 0.564989 0 -0.878331 0.372012 0
          -0.94713 0.485353 0 -0.76107 0.608448 0 -0.772685 0.504954 0 -0.657575 0.657575 0
          -0.962215 0.318903 0 -0.907486 0.235019 0 -0.810788 0.0466688 0 -0.836922 0.0199696 0
          -0.994399 0.0728028 0 -0.621788 0.0205348 0 -1.01037 0.0359397 0 -1.02634 -1.3203e-09 0
          -0.947999 0.104424 0 -0.784654 0.0580238 0 -0.631772 0.0099848 0 -0.327688 5.79792e-10 0
          -0.641757 -1.70054e-10 0 -0.327688 0 0 0 0 0 -0.836922 -7.45177e-10 0
          -1.17231 0.0704404 0 -1.10855 0.0519098 0 -1.19084 -1.91697e-10 0 -1.10855 -7.55998e-10 0
          -1.17964 -8.4494e-10 0 -1.07395 0.10741 0 -0.840031 0.310629 0 -0.867108 0.156795 0
          -0.709526 0.337706 0 -0.975755 0.283551 0 -0.720922 0.168191 0 -0.732318 -2.58196e-09 0
          -0.676418 0.488661 0 -0.812954 0.455553 0 -0.64331 0.64331 0 -0.991427 0.141123 0
          -1.08696 0.125452 0 -1.0071 -1.83643e-09 0 -1.08696 -1.66731e-09 0 -0.867108 -2.20919e-09 0
          -0.378448 0.185569 0 -0.556529 0.179587 0 -0.38443 -2.25605e-09 0 -0.372466 0.372466 0
          -0.556529 -2.41901e-09 0 -0.191552 -2.13376e-09 0 -0.191552 0.191552 0 -0.539149 0.355086 0
          -0.521769 0.521769 0 -0.813756 0.638855 0 -0.889773 0.567918 0 -0.884693 0.540148 0
          -0.742819 0.742819 0 -0.954426 0.475495 0 -0.761373 0.591729 0 -0.709792 0.709792 0
          -0.800858 0.653904 0 -0.711943 0.711943 0 -1.05302 0.249612 0 -1.01908 0.36449 0
          -0.930224 0.410021 0 -0.307809 0.144349 0 -0.388772 0.123074 0 -0.37897 0.225312 0
          -0.236899 0.063386 0 -0.477346 0.221449 0 -0.575721 0.221864 0 -0.28652 0.20813 0
          -0.226846 0.115679 0 -0.19407 0.19407 0 -0.298436 0.0615369 0 -0.151829 4.2586e-09 0
          -0.359973 0.0624834 0 -0.183071 0.0312417 0 0 0 0 -0.468462 0.142174 0
          -0.553909 0.433942 0 -0.51506 0.319825 0 -0.668027 0.432949 0 -0.439792 0.439792 0
          -0.620603 0.327407 0 -0.660372 0.545262 0 -0.548059 0.548059 0 -0.40782 0.332552 0
          -0.30058 0.30058 0 -0.077578 0.0436415 0 -0.0339366 4.87936e-09 0 -0.121219 0.0545065 0
          -0.0339366 0.0339366 0 -0.0611898 0.0272532 0 0 0 0 -0.157064 0.124288 0
          -0.0872829 0.0872829 0 -0.0169683 0.0169683 0 -4.87339e-09 4.87339e-09 0 0 0 0
          0 0 0 0 0 0 0 0 0 -0.120136 0.031693 0
          -0.0884431 4.6866e-09 0 0 0 0 0 0 0 0 0 0
          -0.179059 0.0578397 0 -0.518554 0.0452097 0 -0.268051 2.73068e-09 0 -0.563764 0.0391024 0
          -0.473344 0.0537384 0 -0.287602 0.0195512 0 0 0 0 -0.734869 0.0888868 0
          -0.685085 0.0904195 0 -0.241182 0.0268692 0 -0.214313 3.59728e-09 0 0 0 0
          0 0 0 0 0 0 -0.317421 0.0102674 0 -0.307153 1.70525e-09 0
          0 0 0 0 0 0 0 0 0 -0.592776 0.0290119 0
          -0.816816 0.281341 0 -0.726145 0.294649 0 -0.756998 0.190671 0 -0.66636 0.20401 0
          -0.829298 0.162719 0 -0.773179 0.399801 0 -0.416658 0.0566859 0 -0.548153 0.113372 0
          -0.616619 0.122205 0 -0.616619 -0.122205 0 -0.548153 -0.113372 0 -0.756998 -0.190671 0
          -0.473344 -0.0537384 0 -0.66636 -0.20401 0 -0.575721 -0.221864 0 -0.829298 -0.162719 0
          -0.685085 -0.0904195 0 -0.901598 -0.138671 0 -0.416658 -0.0566859 0 -0.214313 -3.59728e-09 0
          -0.359973 -0.0624834 0 -0.183071 -0.0312417 0 0 0 0 -0.468462 -0.142174 0
          -0.773179 -0.399801 0 -0.726145 -0.294649 0 -0.668027 -0.432949 0 -0.878331 -0.372012 0
          -0.620603 -0.327407 0 -0.660372 -0.545262 0 -0.772685 -0.504954 0 -0.816816 -0.281341 0
          -0.907486 -0.235019 0 -0.592776 -0.0290119 0 -0.307153 -1.70525e-09 0 -0.563764 -0.0391024 0
          -0.621788 -0.0205348 0 -0.287602 -0.0195512 0 0 0 0 -0.734869 -0.0888868 0
          -0.784654 -0.0580238 0 -0.317421 -0.0102674 0 -0.327688 -5.79792e-10 0 0 0 0
          0 0 0 0 0 0 -0.241182 -0.0268692 0 -0.268051 -2.73068e-09 0
          0 0 0 0 0 0 0 0 0 -0.518554 -0.0452097 0
          -0.179059 -0.0578397 0 -0.0884431 -4.6866e-09 0 -0.121219 -0.0545065 0 -0.236899 -0.063386 0
          -0.0611898 -0.0272532 0 0 0 0 -0.157064 -0.124288 0 -0.226846 -0.115679 0
          -0.120136 -0.031693 0 -0.151829 -4.2586e-09 0 0 0 0 0 0 0
          0 0 0 -0.0169683 -0.0169683 0 -0.0339366 -4.87936e-09 0 0 0 0
          0 0 0 0 0 0 -0.077578 -0.0436415 0 -0.40782 -0.332552 0
          -0.51506 -0.319825 0 -0.37897 -0.225312 0 -0.477346 -0.221449 0 -0.28652 -0.20813 0
          -0.553909 -0.433942 0 -0.298436 -0.0615369 0 -0.388772 -0.123074 0 -0.307809 -0.144349 0
          -0.930224 -0.410021 0 -1.01908 -0.36449 0 -0.884693 -0.540148 0 -0.975755 -0.283551 0
          -0.954426 -0.475495 0 -1.0297 -0.410842 0 -0.761373 -0.591729 0 -0.812954 -0.455553 0
          -1.05302 -0.249612 0 -1.08696 -0.125452 0 -1.13568 -0.215674 0 -1.15392 -0.107211 0
          -1.08269 -0.311496 0 -0.800858 -0.653904 0 -0.889773 -0.567918 0 -0.864564 -0.564989 0
          -0.94713 -0.485353 0 -0.76107 -0.608448 0 -0.813756 -0.638855 0 -0.539149 -0.355086 0
          -0.556529 -0.179587 0 -0.709526 -0.337706 0 -0.720922 -0.168191 0 -0.676418 -0.488661 0
          -0.378448 -0.185569 0 -0.991427 -0.141123 0 -0.867108 -0.156795 0 -0.840031 -0.310629 0
          -1.07395 -0.10741 0 -1.10855 -0.0519098 0 -0.994399 -0.0728028 0 -1.15378 -0.142017 0
          -1.01037 -0.0359397 0 -0.947999 -0.104424 0 -1.03934 -0.150825 0 -1.17231 -0.0704404 0
          -1.17964 -0.088971 0 -0.631772 -0.0099848 0 -0.836922 -0.0199696 0 -0.810788 -0.0466688 0
          -0.962215 -0.318903 0 -0.965662 -0.402787 0 -1.0461 -0.270525 0 -1.03582 -0.340684 0
          -0.973413 -0.204598 0 -0.869174 -0.4685 0 -1.14281 -0.178845 0 -1.10598 -0.258502 0
          -1.09994 -0.204663 0 0.204663 1.09994 0 0.258502 1.10598 0 0.270525 1.0461 0
          0.142017 1.15378 0 0.340684 1.03582 0 0.410842 1.0297 0 0.204598 0.973413 0
          0.150825 1.03934 0 0.138671 0.901598 0 0.178845 1.14281 0 0.088971 1.17964 0
          0.215674 1.13568 0 0.107211 1.15392 0 1.10597e-09 1.17216 0 0.311496 1.08269 0
          0.4685 0.869174 0 0.402787 0.965662 0 0.564989 0.864564 0 0.372012 0.878331 0
          0.485353 0.94713 0 0.608448 0.76107 0 0.504954 0.772685 0 0.657575 0.657575 0
          0.318903 0.962215 0 0.235019 0.907486 0 0.0466688 0.810788 0 0.0199696 0.836922 0
          0.0728028 0.994399 0 0.0205348 0.621788 0 0.0359397 1.01037 0 -1.16585e-09 1.02634 0
          0.104424 0.947999 0 0.0580238 0.784654 0 0.0099848 0.631772 0 5.79792e-10 0.327688 0
          -9.717e-10 0.641757 0 -4.8585e-10 0.327688 0 0 0 0 -1.06878e-09 0.836922 0
          0.0704404 1.17231 0 0.0519098 1.10855 0 5.0621e-10 1.19084 0 -3.29821e-10 1.10855 0
          8.06093e-10 1.17964 0 0.10741 1.07395 0 0.310629 0.840031 0 0.156795 0.867108 0
          0.337706 0.709526 0 0.283551 0.975755 0 0.168191 0.720922 0 1.48354e-09 0.732318 0
          0.488661 0.676418 0 0.455553 0.812954 0 0.64331 0.64331 0 0.141123 0.991427 0
          0.125452 1.08696 0 4.34195e-10 1.0071 0 7.70085e-10 1.08696 0 9.58867e-10 0.867108 0
          0.185569 0.378448 0 0.179587 0.556529 0 1.03245e-09 0.38443 0 0.372466 0.372466 0
          1.25799e-09 0.556529 0 7.41028e-10 0.191552 0 0.191552 0.191552 0 0.355086 0.539149 0
          0.521769 0.521769 0 0.638855 0.813756 0 0.567918 0.889773 0 0.540148 0.884693 0
          0.742819 0.742819 0 0.475495 0.954426 0 0.591729 0.761373 0 0.709792 0.709792 0
          0.653904 0.800858 0 0.711943 0.711943 0 0.249612 1.05302 0 0.36449 1.01908 0
          0.410021 0.930224 0 0.144349 0.307809 0 0.123074 0.388772 0 0.225312 0.37897 0
          0.063386 0.236899 0 0.221449 0.477346 0 0.221864 0.575721 0 0.20813 0.28652 0
          0.115679 0.226846 0 0.19407 0.19407 0 0.0615369 0.298436 0 4.2586e-09 0.151829 0
          0.0624834 0.359973 0 0.0312417 0.183071 0 0 0 0 0.142174 0.468462 0
          0.433942 0.553909 0 0.319825 0.51506 0 0.432949 0.668027 0 0.439792 0.439792 0
          0.327407 0.620603 0 0.545262 0.660372 0 0.548059 0.548059 0 0.332552 0.40782 0
          0.30058 0.30058 0 0.0436415 0.077578 0 4.87936e-09 0.0339366 0 0.0545065 0.121219 0
          0.0339366 0.0339366 0 0.0272532 0.0611898 0 0 0 0 0.124288 0.157064 0
          0.0872829 0.0872829 0 0.0169683 0.0169683 0 4.87339e-09 4.87339e-09 0 0 0 0
          0 0 0 0 0 0 0 0 0 0.031693 0.120136 0
          4.6866e-09 0.0884431 0 0 0 0 0 0 0 0 0 0
          0.0578397 0.179059 0 0.0452097 0.518554 0 2.73068e-09 0.268051 0 0.0391024 0.563764 0
          0.0537384 0.473344 0 0.0195512 0.287602 0 0 0 0 0.0888868 0.734869 0
          0.0904195 0.685085 0 0.0268692 0.241182 0 3.59728e-09 0.214313 0 0 0 0
          0 0 0 0 0 0 0.0102674 0.317421 0 1.70525e-09 0.307153 0
          0 0 0 0 0 0 0 0 0 0.0290119 0.592776 0
          0.281341 0.816816 0 0.294649 0.726145 0 0.190671 0.756998 0 0.204011 0.66636 0
          0.162719 0.829298 0 0.399801 0.773179 0 0.0566859 0.416658 0 0.113372 0.548153 0
          0.122205 0.616619 0 -0.122205 0.616619 0 -0.113372 0.548153 0 -0.190671 0.756998 0
          -0.0537384 0.473344 0 -0.204011 0.66636 0 -0.221864 0.575721 0 -0.162719 0.829298 0
          -0.0904195 0.685085 0 -0.138671 0.901598 0 -0.0566859 0.416658 0 -3.59728e-09 0.214313 0
          -0.0624834 0.359973 0 -0.0312417 0.183071 0 0 0 0 -0.142174 0.468462 0
          -0.399801 0.773179 0 -0.294649 0.726145 0 -0.432949 0.668027 0 -0.372012 0.878331 0
          -0.327407 0.620603 0 -0.545262 0.660372 0 -0.504954 0.772685 0 -0.281341 0.816816 0
          -0.235019 0.907486 0 -0.0290119 0.592776 0 -1.70525e-09 0.307153 0 -0.0391024 0.563764 0
          -0.0205348 0.621788 0 -0.0195512 0.287602 0 0 0 0 -0.0888868 0.734869 0
          -0.0580238 0.784654 0 -0.0102674 0.317421 0 -5.79792e-10 0.327688 0 0 0 0
          0 0 0 0 0 0 -0.0268692 0.241182 0 -2.73068e-09 0.268051 0
          0 0 0 0 0 0 0 0 0 -0.0452097 0.518554 0
          -0.0578397 0.179059 0 -4.6866e-09 0.0884431 0 -0.0545065 0.121219 0 -0.063386 0.236899 0
          -0.0272532 0.0611898 0 0 0 0 -0.124288 0.157064 0 -0.115679 0.226846 0
          -0.031693 0.120136 0 -4.2586e-09 0.151829 0 0 0 0 0 0 0
          0 0 0 -0.0169683 0.0169683 0 -4.87936e-09 0.0339366 0 0 0 0
          0 0 0 0 0 0 -0.0436415 0.077578 0 -0.332552 0.40782 0
          -0.319825 0.51506 0 -0.225312 0.37897 0 -0.221449 0.477346 0 -0.20813 0.28652 0
          -0.433942 0.553909 0 -0.0615369 0.298436 0 -0.123074 0.388772 0 -0.144349 0.307809 0
          -0.410021 0.930224 0 -0.36449 1.01908 0 -0.540148 0.884693 0 -0.283551 0.975755 0
          -0.475495 0.954426 0 -0.410842 1.0297 0 -0.591729 0.761373 0 -0.455553 0.812954 0
          -0.249612 1.05302 0 -0.125452 1.08696 0 -0.215674 1.13568 0 -0.107211 1.15392 0
          -0.311496 1.08269 0 -0.653904 0.800858 0 -0.567918 0.889773 0 -0.564989 0.864564 0
          -0.485353 0.94713 0 -0.608448 0.76107 0 -0.638855 0.813756 0 -0.355086 0.539149 0
          -0.179587 0.556529 0 -0.337706 0.709526 0 -0.168191 0.720922 0 -0.488661 0.676418 0
          -0.185569 0.378448 0 -0.141123 0.991427 0 -0.156795 0.867108 0 -0.310629 0.840031 0
          -0.10741 1.07395 0 -0.0519098 1.10855 0 -0.0728028 0.994399 0 -0.142017 1.15378 0
          -0.0359397 1.01037 0 -0.104424 0.947999 0 -0.150825 1.03934 0 -0.0704404 1.17231 0
          -0.088971 1.17964 0 -0.0099848 0.631772 0 -0.0199696 0.836922 0 -0.0466688 0.810788 0
          -0.318903 0.962215 0 -0.402787 0.965662 0 -0.270525 1.0461 0 -0.340684 1.03582 0
          -0.204598 0.973413 0 -0.4685 0.869174 0 -0.178845 1.14281 0 -0.258502 1.10598 0
          -0.204663 1.09994 0 1.09994 -0.204663 0 1.10598 -0.258502 0 1.0461 -0.270525 0
          1.15378 -0.142017 0 1.03582 -0.340684 0 1.0297 -0.410842 0 0.973413 -0.204598 0
          1.03934 -0.150825 0 0.901598 -0.138671 0 1.14281 -0.178845 0 1.17964 -0.088971 0
          1.13568 -0.215674 0 1.15392 -0.107211 0 1.17216 -2.1379e-09 0 1.08269 -0.311496 0
          0.869174 -0.4685 0 0.965662 -0.402787 0 0.864564 -0.564989 0 0.878331 -0.372012 0
          0.94713 -0.485353 0 0.76107 -0.608448 0 0.772685 -0.504954 0 0.962215 -0.318903 0
          0.907486 -0.235019 0 0.810788 -0.0466688 0 0.836922 -0.0199696 0 0.994399 -0.0728028 0
          0.621788 -0.0205348 0 1.01037 -0.0359397 0 1.02634 -1.08013e-09 0 0.947999 -0.104424 0
          0.784654 -0.0580238 0 0.631772 -0.0099848 0 0.327688 -5.79792e-10 0 0.641757 -1.00727e-09 0
          0.327688 -5.03633e-10 0 0 0 0 0.836922 -1.0437e-09 0 1.17231 -0.0704404 0
          1.10855 -0.0519098 0 1.19084 -1.63124e-09 0 1.10855 -1.35568e-09 0 1.17964 -1.88457e-09 0
          1.07395 -0.10741 0 0.840031 -0.310629 0 0.867108 -0.156795 0 0.709526 -0.337706 0
          0.975755 -0.283551 0 0.720922 -0.168191 0 0.732318 -1.74268e-09 0 0.676418 -0.488661 0
          0.812954 -0.455553 0 0.991427 -0.141123 0 1.08696 -0.125452 0 1.0071 -2.08648e-09 0
          1.08696 -2.11219e-09 0 0.867108 -1.91458e-09 0 0.378448 -0.185569 0 0.556529 -0.179587 0
          0.38443 -1.5844e-09 0 0.556529 -1.66354e-09 0 0.191552 -1.79794e-09 0 0.539149 -0.355086 0
          0.813756 -0.638855 0 0.889773 -0.567918 0 0.884693 -0.540148 0 0.954426 -0.475495 0
          0.761373 -0.591729 0 0.800858 -0.653904 0 1.05302 -0.249612 0 1.01908 -0.36449 0
          0.930224 -0.410021 0 0.307809 -0.144349 0 0.388772 -0.123074 0 0.37897 -0.225312 0
          0.236899 -0.063386 0 0.477346 -0.221449 0 0.575721 -0.221864 0 0.28652 -0.20813 0
          0.226846 -0.115679 0 0.298436 -0.0615369 0 0.151829 -4.2586e-09 0 0.359973 -0.0624834 0
          0.183071 -0.0312417 0 0 0 0 0.468462 -0.142174 0 0.553909 -0.433942 0
          0.51506 -0.319825 0 0.668027 -0.432949 0 0.620603 -0.327407 0 0.660372 -0.545262 0
          0.40782 -0.332552 0 0.077578 -0.0436415 0 0.0339366 -4.87936e-09 0 0.121219 -0.0545065 0
          0.0611898 -0.0272532 0 0 0 0 0.157064 -0.124288 0 0.0169683 -0.0169683 0
          0 0 0 0 0 0 0 0 0 0.120136 -0.031693 0
          0.0884431 -4.6866e-09 0 0 0 0 0 0 0 0 0 0
          0.179059 -0.0578397 0 0.518554 -0.0452097 0 0.268051 -2.73068e-09 0 0.563764 -0.0391024 0
          0.473344 -0.0537384 0 0.287602 -0.0195512 0 0 0 0 0.734869 -0.0888868 0
          0.685085 -0.0904195 0 0.241182 -0.0268692 0 0.214313 -3.59728e-09 0 0 0 0
          0 0 0 0 0 0 0.317421 -0.0102674 0 0.307153 -1.70525e-09 0
          0 0 0 0 0 0 0 0 0 0.592776 -0.0290119 0
          0.816816 -0.281341 0 0.726145 -0.294649 0 0.756998 -0.190671 0 0.66636 -0.204011 0
          0.829298 -0.162719 0 0.773179 -0.399801 0 0.416658 -0.0566859 0 0.548153 -0.113372 0
          0.616619 -0.122205 0 0.616619 0.122205 0 0.548153 0.113372 0 0.756998 0.190671 0
          0.473344 0.0537384 0 0.66636 0.204011 0 0.575721 0.221864 0 0.829298 0.162719 0
          0.685085 0.0904195 0 0.901598 0.138671 0 0.416658 0.0566859 0 0.214313 3.59728e-09 0
          0.359973 0.0624834 0 0.183071 0.0312417 0 0 0 0 0.468462 0.142174 0
          0.773179 0.399801 0 0.726145 0.294649 0 0.668027 0.432949 0 0.878331 0.372012 0
          0.620603 0.327407 0 0.660372 0.545262 0 0.772685 0.504954 0 0.816816 0.281341 0
          0.907486 0.235019 0 0.592776 0.0290119 0 0.307153 1.70525e-09 0 0.563764 0.0391024 0
          0.621788 0.0205348 0 0.287602 0.0195512 0 0 0 0 0.734869 0.0888868 0
          0.784654 0.0580238 0 0.317421 0.0102674 0 0.327688 5.79792e-10 0 0 0 0
          0 0 0 0 0 0 0.241182 0.0268692 0 0.268051 2.73068e-09 0
          0 0 0 0 0 0 0 0 0 0.518554 0.0452097 0
          0.179059 0.0578397 0 0.0884431 4.6866e-09 0 0.121219 0.0545065 0 0.236899 0.063386 0
          0.0611898 0.0272532 0 0 0 0 0.157064 0.124288 0 0.226846 0.115679 0
          0.120136 0.031693 0 0.151829 4.2586e-09 0 0 0 0 0 0 0
          0 0 0 0.0169683 0.0169683 0 0.0339366 4.87936e-09 0 0 0 0
          0 0 0 0 0 0 0.077578 0.0436415 0 0.40782 0.332552 0
          0.51506 0.319825 0 0.37897 0.225312 0 0.477346 0.221449 0 0.28652 0.20813 0
          0.553909 0.433942 0 0.298436 0.0615369 0 0.388772 0.123074 0 0.307809 0.144349 0
          0.930224 0.410021 0 1.01908 0.36449 0 0.884693 0.540148 0 0.975755 0.283551 0
          0.954426 0.475495 0 1.0297 0.410842 0 0.761373 0.591729 0 0.812954 0.455553 0
          1.05302 0.249612 0 1.08696 0.125452 0 1.13568 0.215674 0 1.15392 0.107211 0
          1.08269 0.311496 0 0.800858 0.653904 0 0.889773 0.567918 0 0.864564 0.564989 0
          0.94713 0.485353 0 0.76107 0.608448 0 0.813756 0.638855 0 0.539149 0.355086 0
          0.556529 0.179587 0 0.709526 0.337706 0 0.720922 0.168191 0 0.676418 0.488661 0
          0.378448 0.185569 0 0.991427 0.141123 0 0.867108 0.156795 0 0.840031 0.310629 0
          1.07395 0.10741 0 1.10855 0.0519098 0 0.994399 0.0728028 0 1.15378 0.142017 0
          1.01037 0.0359397 0 0.947999 0.104424 0 1.03934 0.150825 0 1.17231 0.0704404 0
          1.17964 0.088971 0 0.631772 0.0099848 0 0.836922 0.0199696 0 0.810788 0.0466688 0
          0.962215 0.318903 0 0.965662 0.402787 0 1.0461 0.270525 0 1.03582 0.340684 0
          0.973413 0.204598 0 0.869174 0.4685 0 1.14281 0.178845 0 1.10598 0.258502 0
          1.09994 0.204663 0
        </DataArray>
      </PointData>
      <Points>
        <DataArray type="Float32" Name="Coordinates" NumberOfComponents="3" format="ascii">
          0.8125 0.40625 0 0.78125 0.40625 0 0.8125 0.375 0 0.8125 0.4375 0
          0.78125 0.375 0 0.75 0.375 0 0.84375 0.375 0 0.84375 0.40625 0
          0.875 0.375 0 0.78125 0.4375 0 0.78125 0.46875 0 0.75 0.4375 0
          0.75 0.46875 0 0.75 0.5 0 0.75 0.40625 0 0.78125 0.3125 0
          0.78125 0.34375 0 0.75 0.3125 0 0.8125 0.3125 0 0.75 0.34375 0
          0.75 0.28125 0 0.78125 0.28125 0 0.75 0.25 0 0.8125 0.34375 0
          0.84375 0.34375 0 0.90625 0.4375 0 0.90625 0.46875 0 0.875 0.4375 0
          0.9375 0.4375 0 0.875 0.46875 0 0.875 0.5 0 0.875 0.40625 0
          0.90625 0.40625 0 0.9375 0.46875 0 0.96875 0.46875 0 0.9375 0.5 0
          0.96875 0.5 0 1 0.5 0 0.90625 0.5 0 0.8125 0.46875 0
          0.84375 0.46875 0 0.8125 0.5 0 0.84375 0.5 0 0.78125 0.5 0
          0.84375 0.4375 0 0.65625 0.4375 0 0.65625 0.46875 0 0.625 0.4375 0
          0.6875 0.4375 0 0.625 0.46875 0 0.625 0.5 0 0.625 0.40625 0
          0.65625 0.40625 0 0.625 0.375 0 0.6875 0.46875 0 0.71875 0.46875 0
          0.6875 0.5 0 0.71875 0.5 0 0.65625 0.5 0 0.5625 0.46875 0
          0.59375 0.46875 0 0.5625 0.5 0 0.5625 0.4375 0 0.59375 0.5 0
          0.53125 0.5 0 0.53125 0.46875 0 0.5 0.5 0 0.59375 0.4375 0
          0.59375 0.40625 0 0.6875 0.34375 0 0.71875 0.34375 0 0.6875 0.375 0
          0.6875 0.3125 0 0.71875 0.375 0 0.65625 0.375 0 0.65625 0.34375 0
          0.71875 0.3125 0 0.71875 0.28125 0 0.71875 0.4375 0 0.71875 0.40625 0
          0.6875 0.40625 0 0.90625 0.1875 0 0.90625 0.21875 0 0.875 0.1875 0
          0.9375 0.1875 0 0.875 0.21875 0 0.875 0.25 0 0.875 0.15625 0
          0.90625 0.15625 0 0.875 0.125 0 0.9375 0.21875 0 0.96875 0.21875 0
          0.9375 0.25 0 0.96875 0.25 0 1 0.25 0 0.90625 0.25 0
          0.8125 0.21875 0 0.84375 0.21875 0 0.8125 0.25 0 0.8125 0.1875 0
          0.84375 0.25 0 0.78125 0.25 0 0.78125 0.21875 0 0.84375 0.1875 0
          0.84375 0.15625 0 0.9375 0.09375 0 0.96875 0.09375 0 0.9375 0.125 0
          0.9375 0.0625 0 0.96875 0.125 0 1 0.125 0 0.90625 0.125 0
          0.90625 0.09375 0 0.96875 0.0625 0 0.96875 0.03125 0 1 0.0625 0
          1 0.03125 0 1 0 0 1 0.09375 0 0.96875 0.1875 0
          0.96875 0.15625 0 1 0.1875 0 1 0.15625 0 1 0.21875 0
          0.9375 0.15625 0 0.9375 0.34375 0 0.96875 0.34375 0 0.9375 0.375 0
          0.9375 0.3125 0 0.96875 0.375 0 1 0.375 0 0.90625 0.375 0
          0.90625 0.34375 0 0.96875 0.3125 0 0.96875 0.28125 0 1 0.3125 0
          1 0.28125 0 1 0.34375 0 0.96875 0.4375 0 0.96875 0.40625 0
          1 0.4375 0 1 0.40625 0 1 0.46875 0 0.9375 0.40625 0
          0.84375 0.3125 0 0.84375 0.28125 0 0.875 0.3125 0 0.875 0.28125 0
          0.875 0.34375 0 0.8125 0.28125 0 0.9375 0.28125 0 0.90625 0.28125 0
          0.90625 0.3125 0 0.90625 0.6875 0 0.90625 0.71875 0 0.875 0.6875 0
          0.9375 0.6875 0 0.875 0.71875 0 0.875 0.75 0 0.875 0.65625 0
          0.90625 0.65625 0 0.875 0.625 0 0.9375 0.71875 0 0.96875 0.71875 0
          0.9375 0.75 0 0.96875 0.75 0 1 0.75 0 0.90625 0.75 0
          0.8125 0.71875 0 0.84375 0.71875 0 0.8125 0.75 0 0.8125 0.6875 0
          0.84375 0.75 0 0.78125 0.75 0 0.78125 0.71875 0 0.75 0.75 0
          0.84375 0.6875 0 0.84375 0.65625 0 0.9375 0.59375 0 0.96875 0.59375 0
          0.9375 0.625 0 0.9375 0.5625 0 0.96875 0.625 0 1 0.625 0
          0.90625 0.625 0 0.90625 0.59375 0 0.96875 0.5625 0 0.96875 0.53125 0
          1 0.5625 0 1 0.53125 0 1 0.59375 0 0.96875 0.6875 0
          0.96875 0.65625 0 1 0.6875 0 1 0.65625 0 1 0.71875 0
          0.9375 0.65625 0 0.9375 0.84375 0 0.96875 0.84375 0 0.9375 0.875 0
          0.9375 0.8125 0 0.96875 0.875 0 1 0.875 0 0.90625 0.875 0
          0.90625 0.84375 0 0.875 0.875 0 0.96875 0.8125 0 0.96875 0.78125 0
          1 0.8125 0 1 0.78125 0 1 0.84375 0 0.96875 0.9375 0
          0.96875 0.90625 0 1 0.9375 0 0.9375 0.9375 0 1 0.90625 0
          1 0.96875 0 0.96875 0.96875 0 1 1 0 0.9375 0.90625 0
          0.90625 0.90625 0 0.84375 0.8125 0 0.84375 0.78125 0 0.875 0.8125 0
          0.8125 0.8125 0 0.875 0.78125 0 0.875 0.84375 0 0.84375 0.84375 0
          0.8125 0.78125 0 0.78125 0.78125 0 0.9375 0.78125 0 0.90625 0.78125 0
          0.90625 0.8125 0 0.6875 0.59375 0 0.71875 0.59375 0 0.6875 0.625 0
          0.6875 0.5625 0 0.71875 0.625 0 0.75 0.625 0 0.65625 0.625 0
          0.65625 0.59375 0 0.625 0.625 0 0.71875 0.5625 0 0.71875 0.53125 0
          0.75 0.5625 0 0.75 0.53125 0 0.75 0.59375 0 0.71875 0.6875 0
          0.71875 0.65625 0 0.75 0.6875 0 0.6875 0.6875 0 0.75 0.65625 0
          0.75 0.71875 0 0.71875 0.71875 0 0.6875 0.65625 0 0.65625 0.65625 0
          0.59375 0.5625 0 0.59375 0.53125 0 0.625 0.5625 0 0.5625 0.5625 0
          0.625 0.53125 0 0.625 0.59375 0 0.59375 0.59375 0 0.5625 0.53125 0
          0.53125 0.53125 0 0.6875 0.53125 0 0.65625 0.53125 0 0.65625 0.5625 0
          0.84375 0.5625 0 0.84375 0.53125 0 0.875 0.5625 0 0.8125 0.5625 0
          0.875 0.53125 0 0.875 0.59375 0 0.84375 0.59375 0 0.8125 0.53125 0
          0.78125 0.53125 0 0.9375 0.53125 0 0.90625 0.53125 0 0.90625 0.5625 0
          0.8125 0.65625 0 0.78125 0.65625 0 0.8125 0.625 0 0.78125 0.625 0
          0.84375 0.625 0 0.78125 0.6875 0 0.78125 0.5625 0 0.78125 0.59375 0
          0.8125 0.59375 0 0.40625 0.1875 0 0.40625 0.21875 0 0.375 0.1875 0
          0.4375 0.1875 0 0.375 0.21875 0 0.375 0.25 0 0.375 0.15625 0
          0.40625 0.15625 0 0.375 0.125 0 0.4375 0.21875 0 0.46875 0.21875 0
          0.4375 0.25 0 0.46875 0.25 0 0.5 0.25 0 0.40625 0.25 0
          0.3125 0.21875 0 0.34375 0.21875 0 0.3125 0.25 0 0.3125 0.1875 0