<?xml version="1.0"?>
<VTKFile type="UnstructuredGrid" version="0.1" byte_order="LittleEndian">
  <UnstructuredGrid>
    <Piece NumberOfCells="2048" NumberOfPoints="1089">
      <PointData Vectors="Uh">
        <DataArray type="Float32" Name="Uh" NumberOfComponents="3" format="ascii">
          -1.71443e-05 0.0330138 0 -5.45383e-06 0.0317432 0 -5.37241e-06 0.0304767 0 -6.43935e-06 0.0355509 0
          -1.59252e-05 0.0293033 0 -4.11927e-06 0.0281301 0 -1.69894e-05 0.0316501 0 -6.45307e-06 0.0342845 0
          -6.22467e-06 0.0328236 0 -1.70586e-05 0.034183 0 -6.18182e-06 0.0366227 0 -5.29833e-06 0.0328151 0
          -1.67312e-05 0.0351576 0 -5.67253e-06 0.0375 0 -1.59682e-05 0.0304726 0 -1.38217e-05 0.0244233 0
          -3.8723e-06 0.0268634 0 -1.95974e-06 0.0234447 0 -3.36676e-06 0.0254022 0 -1.43289e-05 0.0257874 0
          -1.15768e-05 0.0211018 0 -1.16108e-06 0.0219831 0 1.48368e-06 0.0187587 0 -1.56373e-05 0.0279395 0
          -5.04914e-06 0.0290157 0 -1.84688e-05 0.0396547 0 -7.53203e-06 0.0424836 0 -7.15338e-06 0.0382868 0
          -7.38209e-06 0.0410226 0 -1.85141e-05 0.0410184 0 -7.4443e-06 0.04375 0 -1.79108e-05 0.0355552 0
          -6.97047e-06 0.0368259 0 -1.87364e-05 0.0439488 0 -7.54275e-06 0.0454139 0 -7.64699e-06 0.046875 0
          -1.87773e-05 0.0484375 0 -7.52214e-06 0.05 0 -1.87476e-05 0.0453125 0 -1.78334e-05 0.038088 0
          -7.09175e-06 0.0395532 0 -6.77417e-06 0.040625 0 -1.831e-05 0.0421875 0 -1.74162e-05 0.0390625 0
          -1.7995e-05 0.0369188 0 -1.4306e-05 0.028712 0 -3.42739e-06 0.0307622 0 -2.37601e-06 0.0273444 0
          -3.88726e-06 0.0300796 0 -1.38394e-05 0.0292972 0 -2.7576e-06 0.03125 0 -1.30729e-05 0.0253916 0
          -2.64019e-06 0.0266617 0 -1.21032e-06 0.0234387 0 -1.53457e-05 0.0322273 0 -4.90589e-06 0.0336924 0
          -4.27868e-06 0.034375 0 -1.61592e-05 0.0359375 0 -1.46948e-05 0.0328125 0 -1.23499e-05 0.0263672 0
          -1.90312e-06 0.0278322 0 -1.24966e-06 0.028125 0 -9.00158e-07 0.0246095 0 -1.31771e-05 0.0296875 0
          -1.17242e-05 0.0265625 0 -4.50585e-07 0.0249023 0 1.48691e-07 0.025 0 -1.28103e-05 0.0259769 0
          -1.16428e-06 0.0241216 0 -1.28928e-05 0.0236362 0 -2.45357e-06 0.0247117 0 -2.67287e-06 0.0257841 0
          -5.20078e-07 0.0214882 0 -1.45669e-05 0.026957 0 -1.31093e-05 0.0246113 0 -1.00683e-06 0.0225609 0
          -1.23943e-05 0.0224663 0 2.91238e-07 0.0202208 0 -1.57733e-05 0.0314473 0 -4.12126e-06 0.0292022 0
          -1.45542e-05 0.0279319 0 -8.16937e-06 0.0170253 0 7.33112e-08 0.0198539 0 3.66391e-06 0.0164333 0
          2.16889e-06 0.0176174 0 -1.02966e-05 0.0191653 0 -1.45875e-06 0.0218972 0 -3.51254e-06 0.013701 0
          6.49569e-06 0.0141965 0 1.26478e-05 0.0109682 0 -1.13808e-05 0.0205423 0 -5.20305e-07 0.0212302 0
          -2.31578e-06 0.0234675 0 -1.34673e-05 0.0242521 0 -2.28606e-06 0.0250357 0 -1.305e-05 0.0226824 0
          -8.74564e-06 0.0177893 0 1.55825e-06 0.0184771 0 -1.21376e-08 0.0203272 0 5.39055e-06 0.0152513 0
          -1.18679e-05 0.021112 0 -1.03874e-05 0.0195427 0 3.14055e-06 0.0171021 0 -6.52427e-06 0.0158419 0
          8.44145e-06 0.0132064 0 6.75494e-06 0.00884276 0 1.60898e-05 0.00914964 0 1.03913e-05 0.0117679 0
          2.79155e-05 0.00591684 0 -1.03507e-06 0.0121685 0 9.51906e-06 0.0125673 0 6.61718e-07 0.0113674 0
          1.867e-05 0.00853754 0 1.65939e-05 0.00613115 0 4.38592e-05 0.00311201 0 2.55641e-05 0.00634677 0
          3.6067e-05 0.00324496 0 8.0275e-05 0.0001509 0 5.60119e-06 0.00945493 0 -9.05233e-06 0.0182089 0
          5.13945e-06 0.0151883 0 1.98771e-06 0.0187989 0 -5.71534e-06 0.0156822 0 -1.14964e-05 0.0219169 0
          -5.23724e-06 0.0146926 0 -1.69872e-05 0.0322444 0 -5.84635e-06 0.0333201 0 -6.54127e-06 0.0351703 0
          -4.96722e-06 0.0293186 0 -1.76712e-05 0.0363434 0 -6.42486e-06 0.037516 0 -1.75805e-05 0.033997 0
          -5.74097e-06 0.0311683 0 -1.61005e-05 0.0302971 0 -3.83694e-06 0.0272744 0 -4.87212e-06 0.0312751 0
          -1.48721e-05 0.0281551 0 -1.69137e-05 0.0343954 0 -1.85121e-05 0.0423903 0 -7.00798e-06 0.0393668 0
          -7.25881e-06 0.0437578 0 -1.80927e-05 0.0406369 0 -1.86352e-05 0.0468789 0 -1.81866e-05 0.0380964 0
          -1.50891e-05 0.0263813 0 -2.57758e-06 0.0237467 0 -4.4661e-06 0.0273605 0 -1.42476e-05 0.0246288 0
          -1.65852e-05 0.030092 0 -1.30168e-05 0.0228647 0 -1.48935e-05 0.0263929 0 -3.58145e-06 0.025511 0
          -1.59049e-05 0.0283396 0 -1.59049e-05 0.0622854 0 -3.58144e-06 0.065114 0 -4.4661e-06 0.0601395 0
          -4.96721e-06 0.0644314 0 -1.42476e-05 0.0628712 0 -1.45875e-06 0.0656028 0 -1.65852e-05 0.057408 0
          -5.74097e-06 0.0594567 0 -6.22466e-06 0.0546764 0 -1.48935e-05 0.067357 0 -3.83694e-06 0.0696006 0
          -2.31578e-06 0.0702825 0 -1.34673e-05 0.0726229 0 -2.28606e-06 0.0749643 0 -1.305e-05 0.0679426 0
          -1.30168e-05 0.0583852 0 -2.57757e-06 0.0606283 0 -1.21382e-08 0.0609228 0 -3.36676e-06 0.0558478 0
          -1.18679e-05 0.063263 0 -1.03874e-05 0.0585823 0 -1.16108e-06 0.0561419 0 1.48368e-06 0.0562413 0
          -1.50891e-05 0.0579937 0 -5.04914e-06 0.0553593 0 -1.81866e-05 0.0556536 0 -7.00797e-06 0.0575082 0
          -6.54126e-06 0.0585797 0 -7.38208e-06 0.0527274 0 -1.76712e-05 0.0605316 0 -6.42485e-06 0.062484 0
          -1.75805e-05 0.056628 0 -6.97046e-06 0.0537991 0 -1.85121e-05 0.0544847 0 -7.54275e-06 0.0514611 0
          -7.2588e-06 0.0562422 0 -1.86352e-05 0.0531211 0 -1.80927e-05 0.0593631 0 -1.61005e-05 0.0665779 0
          -5.84634e-06 0.0635549 0 -4.87211e-06 0.0687249 0 -1.69137e-05 0.0656046 0 -1.48721e-05 0.0718449 0
          -1.69872e-05 0.0615056 0 -5.23725e-06 0.0790574 0 5.13944e-06 0.0816867 0 1.03913e-05 0.0819821 0
          2.16889e-06 0.0761326 0 -1.03508e-06 0.0847065 0 9.51905e-06 0.0874327 0 6.61711e-07 0.0792576 0
          6.49568e-06 0.0764285 0 1.26478e-05 0.0765318 0 -9.05233e-06 0.0786661 0 -5.20308e-07 0.0756448 0
          1.98771e-06 0.0812011 0 -1.14964e-05 0.0780831 0 -5.71535e-06 0.0843178 0 1.65939e-05 0.0907439 0
          1.60898e-05 0.0877254 0 2.55641e-05 0.0936532 0 2.79155e-05 0.0878332 0 5.60118e-06 0.0905451 0
          3.6067e-05 0.096755 0 4.38592e-05 0.093763 0 8.0275e-05 0.0998491 0 6.75493e-06 0.0849072 0
          1.867e-05 0.0820875 0 -6.52427e-06 0.0685331 0 1.55824e-06 0.0658979 0 3.66391e-06 0.0710667 0
          5.39055e-06 0.0659987 0 -1.02966e-05 0.0683347 0 -3.51255e-06 0.073799 0 8.44145e-06 0.0711686 0
          -8.74565e-06 0.0634606 0 3.14055e-06 0.0610229 0 -1.13808e-05 0.0732077 0 7.33079e-08 0.0707711 0
          -8.16937e-06 0.0735997 0 -1.45542e-05 0.0408181 0 -4.12125e-06 0.0426728 0 -2.67286e-06 0.0429659 0
          -3.88726e-06 0.0386704 0 -1.45669e-05 0.044918 0 -4.11927e-06 0.0468699 0 -1.31093e-05 0.0410137 0
          -2.64018e-06 0.0389633 0 -1.21032e-06 0.0390613 0 -1.57733e-05 0.0404277 0 -4.90589e-06 0.0381826 0
          -5.29833e-06 0.0421849 0 -1.67312e-05 0.0398424 0 -1.59682e-05 0.0445274 0 -1.23943e-05 0.0494087 0
          -2.45357e-06 0.0471633 0 -1.95974e-06 0.0515553 0 -5.20076e-07 0.0472618 0 -1.43289e-05 0.0492126 0
          -1.15768e-05 0.0538982 0 2.91239e-07 0.0516542 0 -1.28928e-05 0.0451138 0 -1.00683e-06 0.0430641 0
          -1.28103e-05 0.0333981 0 -1.90312e-06 0.0315428 0 -2.37601e-06 0.0351556 0 -9.00157e-07 0.0316405 0
          -1.38394e-05 0.0332028 0 -1.30729e-05 0.0371084 0 -1.16428e-06 0.0352534 0 -1.23499e-05 0.0298828 0
          -4.50585e-07 0.0282227 0 -1.53457e-05 0.0365227 0 -3.42739e-06 0.0348628 0 -1.4306e-05 0.036913 0
          -1.7995e-05 0.0474562 0 -7.09175e-06 0.0448218 0 -7.15338e-06 0.0492132 0 -6.43934e-06 0.0456991 0
          -1.85141e-05 0.0464816 0 -1.79108e-05 0.0519448 0 -6.45306e-06 0.0500905 0 -1.78334e-05 0.043162 0
          -6.18182e-06 0.0415023 0 -1.87363e-05 0.0498012 0 -7.53203e-06 0.0481414 0 -1.84688e-05 0.0509703 0
          -1.56373e-05 0.0533105 0 -3.87229e-06 0.0512616 0 -5.3724e-06 0.0507733 0 -1.59251e-05 0.0488217 0
          -1.69894e-05 0.0527249 0 -1.38217e-05 0.0537017 0 -1.70586e-05 0.043942 0 -5.45382e-06 0.0463818 0
          -1.71443e-05 0.0482362 0 -4.4242e-06 0.00761513 0 6.00925e-06 0.00888478 0 6.65811e-06 0.00702914 0
          6.91055e-06 0.00820116 0 -5.20897e-06 0.00820117 0 5.34837e-06 0.00937318 0 -3.90609e-06 0.00585718 0
          7.54676e-06 0.00634547 0 7.9e-06 0.00468521 0 -5.19797e-06 0.00956851 0 5.99323e-06 0.0102523 0
          5.13612e-06 0.0109358 0 -6.21208e-06 0.0117173 0 4.81916e-06 0.0124988 0 -5.95379e-06 0.0101545 0
          -5.25193e-06 0.00683405 0 5.98009e-06 0.00751757 0 5.48761e-06 0.00781074 0 6.42243e-06 0.00585735 0
          -5.78228e-06 0.00859195 0 -5.67133e-06 0.00702958 0 5.92849e-06 0.00615053 0 5.57576e-06 0.00624843 0
          -4.6704e-06 0.00644324 0 7.07476e-06 0.0053689 0 -1.75509e-06 0.00409937 0 1.00533e-05 0.0043925 0
          8.67081e-06 0.00546658 0 1.01088e-05 0.00273213 0 -2.09659e-06 0.00585743 0 9.58644e-06 0.00624833 0
          -2.93983e-06 0.00507588 0 8.90946e-06 0.00380628 0 -3.40817e-07 0.00292766 0 1.14938e-05 0.00146279 0
          1.17123e-05 0.00312324 0 1.30327e-06 0.00156077 0 1.30429e-05 -1.73234e-06 0 -4.90513e-07 0.0046858 0
          -4.17012e-06 0.00878732 0 8.08952e-06 0.00732233 0 7.15721e-06 0.00937354 0 -2.82496e-06 0.00781095 0
          -5.24815e-06 0.0109362 0 -3.39732e-06 0.00683388 0 -8.27693e-06 0.015038 0 2.49969e-06 0.0161124 0
          2.3813e-06 0.0164054 0 3.57652e-06 0.0136706 0 -9.30872e-06 0.0175774 0 1.35719e-06 0.0187495 0
          -8.37849e-06 0.0152334 0 3.31118e-06 0.0139637 0 3.22808e-06 0.0140615 0 -7.97532e-06 0.0146474 0
          4.06416e-06 0.0131823 0 2.83621e-06 0.0156242 0 -7.43084e-06 0.0140615 0 -9.1715e-06 0.0171868 0
          -1.01321e-05 0.0205075 0 1.41262e-06 0.0190424 0 4.52404e-07 0.0218748 0 1.63651e-06 0.0191402 0
          -1.03663e-05 0.0203121 0 -1.09709e-05 0.0234374 0 8.58384e-07 0.0219725 0 -9.253e-06 0.0177728 0
          2.44019e-06 0.0165032 0 -6.80619e-06 0.0107408 0 4.89364e-06 0.00966633 0 4.16004e-06 0.0117173 0
          4.61319e-06 0.00976422 0 -6.47778e-06 0.0105453 0 -7.55075e-06 0.0128894 0 3.96282e-06 0.0118152 0
          -6.17329e-06 0.00878748 0 5.15587e-06 0.00790863 0 -6.887e-06 0.0123032 0 4.5388e-06 0.0114242 0
          -7.31958e-06 0.0126939 0 -4.7576e-06 0.0017562 0 6.68287e-06 0.00204899 0 6.34785e-06 0.00234216 0
          6.48258e-06 0.00117024 0 -4.66628e-06 0.00273262 0 6.756e-06 0.00312308 0 -5.03053e-06 0.00195173 0
          6.24766e-06 0.0014634 0 6.00938e-06 0.00156131 0 -4.44791e-06 0.00136538 0 6.75652e-06 0.000681786 0
          7.07243e-06 0.00156053 0 -4.10463e-06 0.000779287 0 7.01826e-06 -1.95894e-06 0 -4.25511e-06 0.0023418 0
          -5.08864e-06 0.00409993 0 6.34928e-06 0.00341625 0 6.21302e-06 0.00468571 0 6.03142e-06 0.00351415 0
          -4.70272e-06 0.00390439 0 -5.30939e-06 0.00546707 0 5.86825e-06 0.00478361 0 -4.99558e-06 0.00292816 0
          6.09319e-06 0.00244006 0 -5.42288e-06 0.000584827 0 5.8899e-06 0.000291742 0 6.0133e-06 0.000779948 0
          5.37775e-06 0.000389761 0 -5.19218e-06 0.000389277 0 5.87118e-06 -1.38629e-06 0 -5.10666e-06 0.00117063 0
          6.03824e-06 0.000877884 0 -5.10491e-06 0.00019422 0 7.18243e-06 9.71827e-05 0 5.0434e-06 -1.55797e-06 0
          -7.41205e-06 -5.32374e-07 0 0 0 0 -5.57918e-06 -1.30068e-06 0 -4.745e-06 0.000584296 0
          6.20892e-06 0.000486797 0 6.35313e-06 -1.63911e-06 0 -5.10402e-06 -1.48945e-06 0 -4.54997e-06 -1.79952e-06 0
          -4.96496e-06 0.000975098 0 -2.89938e-06 0.00214613 0 8.49739e-06 0.0010719 0 8.83626e-06 0.00234139 0
          7.84095e-06 0.00195089 0 -2.09891e-06 0.00116954 0 9.20289e-06 -2.33774e-06 0 -2.78433e-06 0.00351331 0
          7.98748e-06 0.00322036 0 -3.24127e-06 0.000974341 0 7.50223e-06 0.000876795 0 7.94748e-06 -2.21866e-06 0
          -3.75982e-06 -2.09624e-06 0 -2.6763e-06 -2.292e-06 0 -6.10604e-07 0.00136497 0 9.80353e-06 0.0012672 0
          1.08664e-05 -2.22048e-06 0 -1.22836e-06 -2.30167e-06 0 6.77099e-07 -2.0116e-06 0 -1.77197e-06 0.00253675 0
          -4.3408e-06 0.00488071 0 6.67694e-06 0.00439252 0 7.26706e-06 0.00390407 0 -4.20969e-06 0.00351357 0
          -3.64011e-06 0.00429463 0 -4.89365e-06 0.00527153 0 -3.7752e-06 0.00175571 0 7.25603e-06 0.00263462 0
          -3.60691e-06 0.00292748 0 4.73028e-06 0.00644981 0 1.69266e-05 0.00674497 0 1.28644e-05 0.00859827 0
          1.89955e-05 0.00430121 0 2.12743e-06 0.00899126 0 1.36851e-05 0.00938468 0 1.12436e-06 0.00820591 0
          1.49535e-05 0.00615496 0 1.17669e-05 0.00781381 0 9.38128e-06 0.0044989 0 2.40659e-05 0.00225266 0
          2.22692e-05 0.00469695 0 1.53436e-05 0.00235331 0 3.02833e-05 9.45112e-06 0 6.66379e-06 0.00704094 0
          -4.20341e-06 0.0134835 0 9.98371e-06 0.0112373 0 6.60652e-06 0.0140721 0 7.22915e-06 0.0128953 0
          -1.28525e-06 0.0117285 0 -7.35557e-06 0.0164155 0 4.37175e-06 0.0157294 0 -1.27376e-06 0.0107469 0
          9.77037e-06 0.0102567 0 3.64773e-06 0.00371109 0 1.63873e-05 0.00185557 0 1.61215e-05 0.00390742 0
          1.37009e-05 0.00351491 0 6.79824e-06 0.00195437 0 1.95003e-05 1.21594e-06 0 2.78896e-06 0.00586066 0
          1.30873e-05 0.00556655 0 3.73632e-06 0.00175714 0 1.36546e-05 0.00165884 0 1.58641e-05 -6.80165e-07 0
          3.15759e-06 -1.25962e-06 0 6.36206e-06 1.88211e-07 0 1.0618e-05 0.00215286 0 1.98111e-05 0.00205334 0
          2.41861e-05 4.37276e-06 0 1.0488e-05 2.67536e-06 0 1.58218e-05 6.73011e-06 0 6.29428e-06 0.00410421 0
          1.59721e-05 0.00529751 0 3.55592e-05 0.00266032 0 2.82768e-05 0.00550056 0 2.56666e-05 0.00509587 0
          2.77005e-05 0.00276654 0 4.99922e-05 3.15311e-05 0 8.37928e-06 0.00823483 0 1.96462e-05 0.00793403 0
          2.11002e-05 0.00255695 0 2.93014e-05 0.00245441 0 3.84401e-05 1.7632e-05 0 2.28373e-05 1.32454e-05 0
          3.24499e-05 2.40141e-05 0 3.32813e-05 0.00298988 0 4.20329e-05 0.00287479 0 6.73809e-05 5.94807e-05 0
          4.66018e-05 4.38052e-05 0 6.77824e-05 9.15018e-05 0 1.76291e-05 0.005707 0 -1.98459e-06 0.0127129 0
          9.63961e-06 0.0122202 0 1.37966e-05 0.0101741 0 2.67662e-06 0.00977902 0 2.28516e-06 0.0105705 0
          -5.07954e-06 0.0146613 0 1.27738e-05 0.00489608 0 1.87097e-05 0.00733745 0 8.15302e-06 0.00763523 0
          -9.8131e-06 0.0185554 0 2.61712e-06 0.0166999 0 7.92203e-07 0.0195328 0 1.9137e-06 0.0175782 0
          -9.06552e-06 0.0175798 0 3.68002e-06 0.0156266 0 -1.15007e-05 0.0214858 0 3.3523e-07 0.0204108 0
          -8.14477e-06 0.0158203 0 3.43628e-06 0.0149408 0 4.35311e-06 0.0140624 0 -6.59438e-06 0.0132806 0
          -7.15113e-06 0.0148444 0 -1.0217e-05 0.0193402 0 1.57188e-06 0.0184598 0 2.73623e-06 0.017192 0
          -7.94315e-06 0.0164092 0 -9.02387e-06 0.0179752 0 -1.10224e-05 0.0205104 0 -1.16514e-05 0.0228517 0
          2.04709e-07 0.0215819 0 1.52994e-07 0.0210939 0 -1.04178e-05 0.0199216 0 -1.16977e-05 0.0222662 0
          -1.13972e-05 0.0232421 0 -8.79931e-06 0.0166011 0 1.50997e-06 0.0182614 0 -1.02475e-05 0.0193361 0
          -2.22194e-06 0.0087886 0 8.68291e-06 0.00829965 0 1.06348e-05 0.00703064 0 7.35335e-06 0.0105465 0
          -1.11138e-06 0.00663943 0 -1.17777e-08 0.00742214 0 9.27681e-06 0.00927767 0 -3.94026e-06 0.00995997 0
          5.89422e-06 0.0116202 0 1.44849e-06 0.00331903 0 1.14435e-05 0.00497917 0 1.02697e-06 0.0052728 0
          -3.83244e-06 0.0123076 0 5.18094e-06 0.0143584 0 7.41973e-06 0.0117203 0 -5.7461e-06 0.0136735 0
          -1.66001e-06 0.00976709 0 -6.36246e-06 0.0150437 0 -5.40693e-06 0.0123045 0 5.65245e-06 0.0129888 0
          -3.79431e-06 0.0111333 0 -6.45404e-06 0.0111334 0 4.52698e-06 0.0129889 0 4.87975e-06 0.0117195 0
          4.65714e-06 0.0105472 0 -6.52702e-06 0.0136727 0 4.457e-06 0.0156259 0 -6.16291e-06 0.00976625 0
          4.96222e-06 0.00927783 0 5.17598e-06 0.00781303 0 -6.79947e-06 0.0123051 0 4.34093e-06 0.0116213 0
          4.13052e-06 0.014063 0 -7.16283e-06 0.0132815 0 4.01766e-06 0.0125 0 -6.9401e-06 0.0148444 0
          -6.10951e-06 0.0150402 0 4.87727e-06 0.0143565 0 4.96001e-06 0.0171888 0 5.21899e-06 0.0128917 0
          -6.51897e-06 0.0164073 0 -5.94957e-06 0.0179702 0 5.34718e-06 0.015724 0 5.57576e-06 0.0187516 0
          -6.16794e-06 0.0123056 0 5.18917e-06 0.0102547 0 -6.08561e-06 0.00527365 0 5.3257e-06 0.00498058 0
          5.04044e-06 0.00703152 0 4.96879e-06 0.00351578 0 -6.14498e-06 0.00664076 0 4.99317e-06 0.00625 0
          -6.05176e-06 0.00742228 0 5.39253e-06 0.00556673 0 -5.43142e-06 0.00332039 0 7.02157e-06 0.0016602 0
          4.94705e-06 0.003125 0 -7.24177e-06 0.0015625 0 0 0 0 -6.11976e-06 0.0046875 0
          -6.60652e-06 0.00996112 0 4.84084e-06 0.00830095 0 4.5798e-06 0.009375 0 -6.40215e-06 0.0078125 0
          -6.89389e-06 0.0109375 0 -6.34037e-06 0.00878939 0 -8.13432e-06 0.0193364 0 2.93963e-06 0.018262 0
          2.63834e-06 0.0210942 0 3.46405e-06 0.0175786 0 -8.7176e-06 0.0199221 0 2.43696e-06 0.01875 0
          -8.31886e-06 0.0222664 0 3.29049e-06 0.0204109 0 3.22808e-06 0.0234385 0 -7.85907e-06 0.0166018 0
          3.71659e-06 0.0149416 0 3.30973e-06 0.015625 0 -7.52542e-06 0.0140625 0 -8.31138e-06 0.0171875 0
          -9.75387e-06 0.0232424 0 1.99046e-06 0.0215823 0 1.38415e-06 0.021875 0 1.6365e-06 0.0246098 0
          -9.2697e-06 0.0203125 0 -1.04099e-05 0.0234375 0 8.58383e-07 0.0249025 0 -9.04349e-06 0.022852 0
          2.44019e-06 0.0241218 0 -6.97231e-06 0.020509 0 4.4772e-06 0.0184582 0 3.91304e-06 0.0195322 0
          4.61319e-06 0.0214858 0 -7.00731e-06 0.0175791 0 -7.6175e-06 0.0214854 0 3.96282e-06 0.0225598 0
          -6.41004e-06 0.0193373 0 5.15587e-06 0.0202164 0 -7.39261e-06 0.0158208 0 3.97901e-06 0.0166999 0
          -7.55407e-06 0.0185554 0 -5.50356e-06 0.00761803 0 5.85255e-06 0.00732501 0 5.85327e-06 0.0101573 0
          5.33816e-06 0.00507872 0 -5.40472e-06 0.00976663 0 5.62234e-06 0.00937594 0 -5.20012e-06 0.010548 0
          5.99266e-06 0.00791106 0 6.00938e-06 0.0109387 0 -5.09283e-06 0.00488336 0 7.18181e-06 0.0024417 0
          5.2345e-06 0.00468801 0 -7.10127e-06 0.00234401 0 0 0 0 -5.66726e-06 0.00703198 0
          -5.36964e-06 0.0146498 0 5.81328e-06 0.0122082 0 5.62604e-06 0.0140638 0 6.03142e-06 0.0152358 0
          -5.57336e-06 0.0117199 0 -5.60332e-06 0.0164077 0 5.86825e-06 0.0170914 0 -5.26054e-06 0.0126966 0
          6.09319e-06 0.0131849 0 -4.97408e-06 0.00566481 0 7.24736e-06 0.00283241 0 5.40427e-06 0.00546943 0
          5.37775e-06 0.00586024 0 -7.01753e-06 0.00273473 0 0 0 0 -5.39844e-06 0.00820408 0
          6.03824e-06 0.00849712 0 -7.03364e-06 0.00293012 0 7.18244e-06 0.00302782 0 0 0 0
          0 0 0 0 0 0 0 0 0 -7.05049e-06 0.00253937 0
          7.22634e-06 0.00263705 0 0 0 0 0 0 0 0 0 0
          -5.00295e-06 0.00527407 0 -5.30832e-06 0.00410191 0 7.07962e-06 0.00205097 0 5.03102e-06 0.00390654 0
          5.1247e-06 0.00429729 0 -7.20071e-06 0.00195328 0 0 0 0 -5.9878e-06 0.00585979 0
          5.51692e-06 0.00615285 0 -7.15492e-06 0.00214865 0 7.12912e-06 0.00224634 0 0 0 0
          0 0 0 0 0 0 -7.23113e-06 0.00175789 0 7.04187e-06 0.00185559 0
          0 0 0 0 0 0 0 0 0 -5.38837e-06 0.00371116 0
          -5.89364e-06 0.0107431 0 5.48942e-06 0.0112315 0 5.38079e-06 0.0085945 0 -5.649e-06 0.00898522 0
          -5.87789e-06 0.00820377 0 -5.78677e-06 0.0134777 0 -5.20352e-06 0.00449265 0 5.68002e-06 0.00673895 0
          -5.84036e-06 0.0064459 0 -5.84036e-06 0.0029291 0 5.68002e-06 0.00263605 0 5.38079e-06 0.0039055 0
          5.1247e-06 0.00195271 0 -5.649e-06 0.00351478 0 5.62234e-06 0.00312406 0 -5.87789e-06 0.00429623 0
          5.51692e-06 0.00322215 0 5.17598e-06 0.00468697 0 -5.20352e-06 0.00175735 0 7.12912e-06 0.000878661 0
          5.2345e-06 0.00156199 0 -7.10127e-06 0.000780986 0 0 0 0 -5.66726e-06 0.00234302 0
          -5.78678e-06 0.00527227 0 5.48942e-06 0.00439351 0 5.62604e-06 0.00468621 0 5.21899e-06 0.00585834 0
          -5.57336e-06 0.00390514 0 -5.60332e-06 0.00546732 0 5.34718e-06 0.00615104 0 -5.89364e-06 0.00488192 0
          5.18917e-06 0.00537032 0 -5.38837e-06 0.00253884 0 7.04187e-06 0.00126941 0 5.03102e-06 0.00234346 0
          4.96879e-06 0.00273422 0 -7.20071e-06 0.00117172 0 0 0 0 -5.9878e-06 0.00351521 0
          5.39253e-06 0.00380827 0 -7.23113e-06 0.00136711 0 7.02157e-06 0.0014648 0 0 0 0
          0 0 0 0 0 0 -7.15492e-06 0.000976349 0 7.07962e-06 0.00107403 0
          0 0 0 0 0 0 0 0 0 -5.30832e-06 0.00214809 0
          -5.00295e-06 0.000975934 0 7.22634e-06 0.000487952 0 5.40427e-06 0.000780572 0 5.33816e-06 0.00117128 0
          -7.01753e-06 0.000390275 0 0 0 0 -5.39844e-06 0.00117092 0 5.99266e-06 0.00146394 0
          -7.05049e-06 0.000585632 0 7.18181e-06 0.000683304 0 0 0 0 0 0 0
          0 0 0 -7.03364e-06 0.000194883 0 7.24736e-06 0.000292586 0 0 0 0
          0 0 0 0 0 0 -4.97408e-06 0.000585189 0 -5.26054e-06 0.00292841 0
          5.81328e-06 0.00341676 0 5.85327e-06 0.00234267 0 -5.40472e-06 0.00273337 0 -5.20012e-06 0.00195199 0
          -5.36964e-06 0.00410018 0 -5.09283e-06 0.00136664 0 5.85255e-06 0.00204999 0 -5.50356e-06 0.00175697 0
          -7.55407e-06 0.0126946 0 3.97901e-06 0.0114251 0 3.91304e-06 0.0117178 0 3.46405e-06 0.0136714 0
          -7.00731e-06 0.0105459 0 4.457e-06 0.00937412 0 -7.6175e-06 0.0128896 0 3.29049e-06 0.0139641 0
          -7.39261e-06 0.0123042 0 3.71659e-06 0.0131834 0 4.13052e-06 0.010937 0 -7.16283e-06 0.0117185 0
          -6.9401e-06 0.0101556 0 -6.41004e-06 0.00878773 0 4.4772e-06 0.00966682 0 4.96001e-06 0.00781124 0
          -6.51897e-06 0.00859268 0 -5.94957e-06 0.00702983 0 -6.97231e-06 0.010741 0 -9.04349e-06 0.017773 0
          1.99047e-06 0.0190427 0 2.63834e-06 0.0164058 0 -8.7176e-06 0.0175779 0 -8.31886e-06 0.0152336 0
          -9.75387e-06 0.0205076 0 -7.85907e-06 0.0146482 0 2.93963e-06 0.016113 0 -8.13432e-06 0.0150386 0
          -6.34037e-06 0.00683561 0 4.84084e-06 0.00732405 0 5.04044e-06 0.00546848 0 4.65714e-06 0.00820275 0
          -6.14498e-06 0.00585924 0 -6.05176e-06 0.00507772 0 4.96222e-06 0.00634717 0 -6.60652e-06 0.00878888 0
          4.34093e-06 0.0102537 0 -5.43142e-06 0.00292961 0 5.3257e-06 0.00439442 0 -6.08561e-06 0.00410135 0
          -6.16794e-06 0.00644443 0 4.87727e-06 0.00751854 0 4.87975e-06 0.00703052 0 -6.52702e-06 0.00820232 0
          -6.16291e-06 0.00585875 0 -6.10951e-06 0.00683479 0 -6.79947e-06 0.0095699 0 4.52698e-06 0.0088861 0
          -6.45404e-06 0.00761664 0 -3.79431e-06 0.0482417 0 5.65245e-06 0.0463862 0 7.41973e-06 0.0507797 0
          7.35336e-06 0.0457035 0 -5.74609e-06 0.0488265 0 3.68003e-06 0.0468734 0 -1.66001e-06 0.0527329 0
          9.27681e-06 0.0500973 0 1.17669e-05 0.0546862 0 -5.40692e-06 0.0439455 0 5.89422e-06 0.0415048 0
          4.35311e-06 0.0421876 0 -6.59438e-06 0.0398444 0 4.81916e-06 0.0375012 0 -7.15113e-06 0.0445306 0
          -6.36246e-06 0.0537063 0 5.18094e-06 0.0512666 0 2.73623e-06 0.051558 0 7.22914e-06 0.0558547 0
          -7.94315e-06 0.0492158 0 -9.02387e-06 0.0538998 0 4.37175e-06 0.0561456 0 -3.83244e-06 0.0533174 0
          9.77037e-06 0.0553683 0 1.02697e-06 0.0509772 0 1.14435e-05 0.0481458 0 1.06348e-05 0.0492194 0
          1.37009e-05 0.0527351 0 -1.11138e-06 0.0464856 0 9.58644e-06 0.0437517 0 -1.1778e-08 0.0519529 0
          1.30873e-05 0.0538085 0 1.44849e-06 0.049806 0 1.36546e-05 0.0514662 0 1.17123e-05 0.0468768 0
          1.30327e-06 0.0484392 0 1.30429e-05 0.0500017 0 -4.90512e-07 0.0453142 0 -3.94026e-06 0.043165 0
          8.68291e-06 0.0448253 0 7.15721e-06 0.0406265 0 -2.82496e-06 0.042189 0 -5.24815e-06 0.0390638 0
          -2.22194e-06 0.0474614 0 -1.02475e-05 0.0369139 0 1.50998e-06 0.0348636 0 1.52996e-07 0.0351561 0
          1.9137e-06 0.0386718 0 -1.04178e-05 0.0332034 0 1.35719e-06 0.0312505 0 -1.16977e-05 0.0371088 0
          3.35231e-07 0.0389642 0 -8.79931e-06 0.0365239 0 3.43629e-06 0.0381842 0 2.83621e-06 0.0343758 0
          -7.43083e-06 0.0359385 0 -9.1715e-06 0.0328132 0 -1.13972e-05 0.0298829 0 2.04709e-07 0.0315431 0
          4.52403e-07 0.0281252 0 -1.03663e-05 0.0296879 0 -1.09709e-05 0.0265626 0 -1.16514e-05 0.0333983 0
          -1.10224e-05 0.0451146 0 1.57188e-06 0.0471652 0 7.92205e-07 0.0429672 0 -9.06552e-06 0.0449202 0
          -1.15007e-05 0.0410142 0 -1.0217e-05 0.0494098 0 -8.14476e-06 0.0404297 0 2.61713e-06 0.0426751 0
          -9.8131e-06 0.0408196 0 8.15302e-06 0.0736148 0 1.87097e-05 0.0707876 0 1.37966e-05 0.0710759 0
          2.56666e-05 0.0761541 0 2.67662e-06 0.068346 0 1.36851e-05 0.0656153 0 2.28516e-06 0.0738045 0
          1.96462e-05 0.076441 0 1.27738e-05 0.0732289 0 2.93014e-05 0.0756706 0 2.22692e-05 0.0703031 0
          1.53436e-05 0.0726467 0 3.02833e-05 0.0749905 0 6.66379e-06 0.0679591 0 -5.07954e-06 0.0634637 0
          9.63961e-06 0.0659048 0 6.60652e-06 0.0609279 0 -1.28525e-06 0.0632715 0 -7.35557e-06 0.0585845 0
          -1.98459e-06 0.0685371 0 1.76291e-05 0.084918 0 4.20329e-05 0.0877502 0 2.82768e-05 0.0819994 0
          2.77005e-05 0.0847335 0 4.99922e-05 0.0874685 0 8.37928e-06 0.0792652 0 3.32813e-05 0.0907601 0
          6.73809e-05 0.0936905 0 6.77825e-05 0.0967835 0 4.66018e-05 0.0905812 0 2.11002e-05 0.078693 0
          3.55592e-05 0.0817147 0 3.84401e-05 0.0812324 0 3.24499e-05 0.084351 0 2.28372e-05 0.0781118 0
          1.59721e-05 0.0790775 0 6.29428e-06 0.0615208 0 1.98111e-05 0.0635717 0 1.61215e-05 0.0585926 0
          1.89955e-05 0.0644488 0 6.79824e-06 0.0605456 0 1.95003e-05 0.0624988 0 2.78896e-06 0.0566393 0
          1.49535e-05 0.05947 0 1.0618e-05 0.0665971 0 2.40659e-05 0.0696223 0 2.41861e-05 0.0687456 0
          1.58218e-05 0.0718683 0 1.0488e-05 0.0656223 0 3.73632e-06 0.0544929 0 1.63873e-05 0.0575194 0
          1.58641e-05 0.0562507 0 6.36205e-06 0.0593748 0 3.15759e-06 0.0531263 0 3.64773e-06 0.0556639 0
          -1.27377e-06 0.0580031 0 9.9837e-06 0.0606377 0 1.28644e-05 0.0601517 0 2.12743e-06 0.0628837 0
          1.12436e-06 0.0574191 0 -4.20341e-06 0.0583915 0 9.38127e-06 0.0673761 0 1.69266e-05 0.06513 0
          4.73028e-06 0.0623002 0 -3.60691e-06 0.0283225 0 7.25604e-06 0.0254904 0 7.26706e-06 0.0273459 0
          7.84095e-06 0.0292991 0 -4.20969e-06 0.0246114 0 6.756e-06 0.0218769 0 -3.64011e-06 0.0300804 0
          7.98748e-06 0.0311546 0 7.9e-06 0.0328148 0 -3.77519e-06 0.0263693 0 7.50223e-06 0.0272482 0
          7.07243e-06 0.0234395 0 -4.10463e-06 0.0242207 0 7.01826e-06 0.025002 0 -4.25511e-06 0.0226582 0
          -4.89365e-06 0.0228535 0 6.67694e-06 0.0237325 0 6.21302e-06 0.0203143 0 6.42243e-06 0.0253926 0
          -4.70272e-06 0.0210956 0 -5.30939e-06 0.0195329 0 5.92849e-06 0.0219745 0 -4.3408e-06 0.0263693 0
          7.07477e-06 0.0290061 0 -1.77196e-06 0.0380883 0 9.80353e-06 0.0393578 0 8.83626e-06 0.0351586 0
          1.01088e-05 0.0410179 0 -2.0989e-06 0.0363305 0 9.2029e-06 0.0375023 0 -2.78432e-06 0.0339867 0
          8.90946e-06 0.0368187 0 -6.10602e-07 0.042385 0 1.14938e-05 0.0454122 0 1.08664e-05 0.0437522 0
          6.771e-07 0.046877 0 -1.22835e-06 0.0406273 0 -3.24126e-06 0.0302757 0 8.4974e-06 0.0333031 0
          7.94748e-06 0.0312522 0 -2.67629e-06 0.0343773 0 -3.75981e-06 0.0281271 0 -2.89938e-06 0.0322289 0
          -4.96496e-06 0.0146499 0 6.20892e-06 0.0151382 0 6.0133e-06 0.0117201 0 6.48258e-06 0.0175798 0
          -5.19218e-06 0.0121107 0 5.87118e-06 0.0125014 0 -5.10666e-06 0.0113294 0 6.24766e-06 0.0141616 0
          -4.745e-06 0.0181657 0 6.75652e-06 0.0211932 0 6.35314e-06 0.0187516 0 -4.54997e-06 0.0218768 0
          -5.10402e-06 0.0156265 0 -5.10491e-06 0.00605578 0 5.8899e-06 0.00908326 0 5.0434e-06 0.00625156 0
          -5.57918e-06 0.0093763 0 -7.41205e-06 0.00312553 0 -5.42288e-06 0.00879017 0 -4.99558e-06 0.0158218 0
          6.34929e-06 0.0184587 0 6.34785e-06 0.0164078 0 -4.66628e-06 0.0191424 0 -5.03052e-06 0.0136733 0
          -5.08864e-06 0.0177751 0 -4.4479e-06 0.0205096 0 6.68288e-06 0.019826 0 -4.7576e-06 0.0169938 0
          -7.31958e-06 0.0279311 0 4.5388e-06 0.0292008 0 4.16004e-06 0.0257827 0 3.57652e-06 0.0300794 0
          -6.47778e-06 0.0269547 0 5.34837e-06 0.0281268 0 -7.55075e-06 0.0246106 0 3.31118e-06 0.0266613 0
          -6.887e-06 0.0314468 0 4.06416e-06 0.0336927 0 5.13612e-06 0.0328142 0 -6.21207e-06 0.0351577 0
          -5.95379e-06 0.0304705 0 -6.17329e-06 0.0224625 0 4.89364e-06 0.0247087 0 5.48761e-06 0.0234393 0
          -5.78228e-06 0.025783 0 -5.67133e-06 0.0210954 0 -6.80619e-06 0.0236342 0 -9.253e-06 0.0259772 0
          1.41262e-06 0.0278326 0 2.3813e-06 0.0273446 0 -9.30872e-06 0.0292976 0 -8.37849e-06 0.0253916 0
          -1.01321e-05 0.0263675 0 -7.97532e-06 0.0322276 0 2.49969e-06 0.0307626 0 -8.27693e-06 0.028712 0
          -3.39731e-06 0.0369161 0 8.08952e-06 0.0395527 0 8.67082e-06 0.0382834 0 6.91056e-06 0.0355488 0
          -2.09658e-06 0.0410176 0 -2.93983e-06 0.0355491 0 7.54677e-06 0.0342795 0 -4.17012e-06 0.0380877 0
          5.99323e-06 0.0366227 0 -3.40816e-07 0.0439473 0 1.00533e-05 0.0424825 0 -1.75509e-06 0.0396506 0
          -4.6704e-06 0.0279318 0 5.98009e-06 0.0268574 0 6.65811e-06 0.0304709 0 -5.20898e-06 0.0292988 0
          -3.90609e-06 0.0316428 0 -5.25193e-06 0.024416 0 -5.19797e-06 0.0341815 0 6.00925e-06 0.0317402 0
          -4.4242e-06 0.0330099 0
        </DataArray>
      </PointData>
      <Points>
        <DataArray type="Float32" Name="Coordinates" NumberOfComponents="3" format="ascii">
          0.8125 0.40625 0 0.78125 0.40625 0 0.8125 0.375 0 0.8125 0.4375 0
          0.78125 0.375 0 0.75 0.375 0 0.84375 0.375 0 0.84375 0.40625 0
          0.875 0.375 0 0.78125 0.4375 0 0.78125 0.46875 0 0.75 0.4375 0
          0.75 0.46875 0 0.75 0.5 0 0.75 0.40625 0 0.78125 0.3125 0
          0.78125 0.34375 0 0.75 0.3125 0 0.8125 0.3125 0 0.75 0.34375 0
          0.75 0.28125 0 0.78125 0.28125 0 0.75 0.25 0 0.8125 0.34375 0
          0.84375 0.34375 0 0.90625 0.4375 0 0.90625 0.46875 0 0.875 0.4375 0